<VTKFile type="UnstructuredGrid" version="0.1" byte_order="LittleEndian">
<UnstructuredGrid>
<Piece NumberOfPoints="3584" NumberOfCells="448">
<Points>
<DataArray type="Float64" NumberOfComponents="3" format="ascii">
0 -1 -1
0.25 -1 -1
0 -0.75 -1
0.25 -0.75 -1
0 -1 -0.75
0.25 -1 -0.75
0 -0.75 -0.75
0.25 -0.75 -0.75
0.25 -1 -1
0.5 -1 -1
0.25 -0.75 -1
0.5 -0.75 -1
0.25 -1 -0.75
0.5 -1 -0.75
0.25 -0.75 -0.75
0.5 -0.75 -0.75
0.25 -0.75 -1
0.5 -0.75 -1
0.25 -0.5 -1
0.5 -0.5 -1
0.25 -0.75 -0.75
0.5 -0.75 -0.75
0.25 -0.5 -0.75
0.5 -0.5 -0.75
0 -0.75 -1
0.25 -0.75 -1
0 -0.5 -1
0.25 -0.5 -1
0 -0.75 -0.75
0.25 -0.75 -0.75
0 -0.5 -0.75
0.25 -0.5 -0.75
0 -1 -0.75
0.25 -1 -0.75
0 -0.75 -0.75
0.25 -0.75 -0.75
0 -1 -0.5
0.25 -1 -0.5
0 -0.75 -0.5
0.25 -0.75 -0.5
0.25 -1 -0.75
0.5 -1 -0.75
0.25 -0.75 -0.75
0.5 -0.75 -0.75
0.25 -1 -0.5
0.5 -1 -0.5
0.25 -0.75 -0.5
0.5 -0.75 -0.5
0.25 -0.75 -0.75
0.5 -0.75 -0.75
0.25 -0.5 -0.75
0.5 -0.5 -0.75
0.25 -0.75 -0.5
0.5 -0.75 -0.5
0.25 -0.5 -0.5
0.5 -0.5 -0.5
0 -0.75 -0.75
0.25 -0.75 -0.75
0 -0.5 -0.75
0.25 -0.5 -0.75
0 -0.75 -0.5
0.25 -0.75 -0.5
0 -0.5 -0.5
0.25 -0.5 -0.5
0.5 -1 -1
0.75 -1 -1
0.5 -0.75 -1
0.75 -0.75 -1
0.5 -1 -0.75
0.75 -1 -0.75
0.5 -0.75 -0.75
0.75 -0.75 -0.75
0.75 -1 -1
1 -1 -1
0.75 -0.75 -1
1 -0.75 -1
0.75 -1 -0.75
1 -1 -0.75
0.75 -0.75 -0.75
1 -0.75 -0.75
0.75 -0.75 -1
1 -0.75 -1
0.75 -0.5 -1
1 -0.5 -1
0.75 -0.75 -0.75
1 -0.75 -0.75
0.75 -0.5 -0.75
1 -0.5 -0.75
0.5 -0.75 -1
0.75 -0.75 -1
0.5 -0.5 -1
0.75 -0.5 -1
0.5 -0.75 -0.75
0.75 -0.75 -0.75
0.5 -0.5 -0.75
0.75 -0.5 -0.75
0.5 -1 -0.75
0.75 -1 -0.75
0.5 -0.75 -0.75
0.75 -0.75 -0.75
0.5 -1 -0.5
0.75 -1 -0.5
0.5 -0.75 -0.5
0.75 -0.75 -0.5
0.75 -1 -0.75
1 -1 -0.75
0.75 -0.75 -0.75
1 -0.75 -0.75
0.75 -1 -0.5
1 -1 -0.5
0.75 -0.75 -0.5
1 -0.75 -0.5
0.75 -0.75 -0.75
1 -0.75 -0.75
0.75 -0.5 -0.75
1 -0.5 -0.75
0.75 -0.75 -0.5
1 -0.75 -0.5
0.75 -0.5 -0.5
1 -0.5 -0.5
0.5 -0.75 -0.75
0.75 -0.75 -0.75
0.5 -0.5 -0.75
0.75 -0.5 -0.75
0.5 -0.75 -0.5
0.75 -0.75 -0.5
0.5 -0.5 -0.5
0.75 -0.5 -0.5
0.5 -0.5 -1
0.75 -0.5 -1
0.5 -0.25 -1
0.75 -0.25 -1
0.5 -0.5 -0.75
0.75 -0.5 -0.75
0.5 -0.25 -0.75
0.75 -0.25 -0.75
0.75 -0.5 -1
1 -0.5 -1
0.75 -0.25 -1
1 -0.25 -1
0.75 -0.5 -0.75
1 -0.5 -0.75
0.75 -0.25 -0.75
1 -0.25 -0.75
0.75 -0.25 -1
1 -0.25 -1
0.75 0 -1
1 0 -1
0.75 -0.25 -0.75
1 -0.25 -0.75
0.75 0 -0.75
1 0 -0.75
0.5 -0.25 -1
0.75 -0.25 -1
0.5 0 -1
0.75 0 -1
0.5 -0.25 -0.75
0.75 -0.25 -0.75
0.5 0 -0.75
0.75 0 -0.75
0.5 -0.5 -0.75
0.75 -0.5 -0.75
0.5 -0.25 -0.75
0.75 -0.25 -0.75
0.5 -0.5 -0.5
0.75 -0.5 -0.5
0.5 -0.25 -0.5
0.75 -0.25 -0.5
0.75 -0.5 -0.75
1 -0.5 -0.75
0.75 -0.25 -0.75
1 -0.25 -0.75
0.75 -0.5 -0.5
1 -0.5 -0.5
0.75 -0.25 -0.5
1 -0.25 -0.5
0.75 -0.25 -0.75
1 -0.25 -0.75
0.75 0 -0.75
1 0 -0.75
0.75 -0.25 -0.5
1 -0.25 -0.5
0.75 0 -0.5
1 0 -0.5
0.5 -0.25 -0.75
0.75 -0.25 -0.75
0.5 0 -0.75
0.75 0 -0.75
0.5 -0.25 -0.5
0.75 -0.25 -0.5
0.5 0 -0.5
0.75 0 -0.5
0 -0.5 -1
0.25 -0.5 -1
0 -0.25 -1
0.25 -0.25 -1
0 -0.5 -0.75
0.25 -0.5 -0.75
0 -0.25 -0.75
0.25 -0.25 -0.75
0.25 -0.5 -1
0.5 -0.5 -1
0.25 -0.25 -1
0.5 -0.25 -1
0.25 -0.5 -0.75
0.5 -0.5 -0.75
0.25 -0.25 -0.75
0.5 -0.25 -0.75
0.25 -0.25 -1
0.5 -0.25 -1
0.25 0 -1
0.5 0 -1
0.25 -0.25 -0.75
0.5 -0.25 -0.75
0.25 0 -0.75
0.5 0 -0.75
0 -0.25 -1
0.25 -0.25 -1
0 0 -1
0.25 0 -1
0 -0.25 -0.75
0.25 -0.25 -0.75
0 0 -0.75
0.25 0 -0.75
0 -0.5 -0.75
0.25 -0.5 -0.75
0 -0.25 -0.75
0.25 -0.25 -0.75
0 -0.5 -0.5
0.25 -0.5 -0.5
0 -0.25 -0.5
0.25 -0.25 -0.5
0.25 -0.5 -0.75
0.5 -0.5 -0.75
0.25 -0.25 -0.75
0.5 -0.25 -0.75
0.25 -0.5 -0.5
0.5 -0.5 -0.5
0.25 -0.25 -0.5
0.5 -0.25 -0.5
0.25 -0.25 -0.75
0.5 -0.25 -0.75
0.25 0 -0.75
0.5 0 -0.75
0.25 -0.25 -0.5
0.5 -0.25 -0.5
0.25 0 -0.5
0.5 0 -0.5
0 -0.25 -0.75
0.25 -0.25 -0.75
0 0 -0.75
0.25 0 -0.75
0 -0.25 -0.5
0.25 -0.25 -0.5
0 0 -0.5
0.25 0 -0.5
0 -1 -0.5
0.25 -1 -0.5
0 -0.75 -0.5
0.25 -0.75 -0.5
0 -1 -0.25
0.25 -1 -0.25
0 -0.75 -0.25
0.25 -0.75 -0.25
0.25 -1 -0.5
0.5 -1 -0.5
0.25 -0.75 -0.5
0.5 -0.75 -0.5
0.25 -1 -0.25
0.5 -1 -0.25
0.25 -0.75 -0.25
0.5 -0.75 -0.25
0.25 -0.75 -0.5
0.5 -0.75 -0.5
0.25 -0.5 -0.5
0.5 -0.5 -0.5
0.25 -0.75 -0.25
0.5 -0.75 -0.25
0.25 -0.5 -0.25
0.5 -0.5 -0.25
0 -0.75 -0.5
0.25 -0.75 -0.5
0 -0.5 -0.5
0.25 -0.5 -0.5
0 -0.75 -0.25
0.25 -0.75 -0.25
0 -0.5 -0.25
0.25 -0.5 -0.25
0 -1 -0.25
0.25 -1 -0.25
0 -0.75 -0.25
0.25 -0.75 -0.25
0 -1 0
0.25 -1 0
0 -0.75 0
0.25 -0.75 0
0.25 -1 -0.25
0.5 -1 -0.25
0.25 -0.75 -0.25
0.5 -0.75 -0.25
0.25 -1 0
0.5 -1 0
0.25 -0.75 0
0.5 -0.75 0
0.25 -0.75 -0.25
0.5 -0.75 -0.25
0.25 -0.5 -0.25
0.5 -0.5 -0.25
0.25 -0.75 0
0.5 -0.75 0
0.25 -0.5 0
0.5 -0.5 0
0 -0.75 -0.25
0.25 -0.75 -0.25
0 -0.5 -0.25
0.25 -0.5 -0.25
0 -0.75 0
0.25 -0.75 0
0 -0.5 0
0.25 -0.5 0
0.5 -1 -0.5
0.75 -1 -0.5
0.5 -0.75 -0.5
0.75 -0.75 -0.5
0.5 -1 -0.25
0.75 -1 -0.25
0.5 -0.75 -0.25
0.75 -0.75 -0.25
0.75 -1 -0.5
1 -1 -0.5
0.75 -0.75 -0.5
1 -0.75 -0.5
0.75 -1 -0.25
1 -1 -0.25
0.75 -0.75 -0.25
1 -0.75 -0.25
0.75 -0.75 -0.5
1 -0.75 -0.5
0.75 -0.5 -0.5
1 -0.5 -0.5
0.75 -0.75 -0.25
1 -0.75 -0.25
0.75 -0.5 -0.25
1 -0.5 -0.25
0.5 -0.75 -0.5
0.75 -0.75 -0.5
0.5 -0.5 -0.5
0.75 -0.5 -0.5
0.5 -0.75 -0.25
0.75 -0.75 -0.25
0.5 -0.5 -0.25
0.75 -0.5 -0.25
0.5 -1 -0.25
0.75 -1 -0.25
0.5 -0.75 -0.25
0.75 -0.75 -0.25
0.5 -1 0
0.75 -1 0
0.5 -0.75 0
0.75 -0.75 0
0.75 -1 -0.25
1 -1 -0.25
0.75 -0.75 -0.25
1 -0.75 -0.25
0.75 -1 0
1 -1 0
0.75 -0.75 0
1 -0.75 0
0.75 -0.75 -0.25
1 -0.75 -0.25
0.75 -0.5 -0.25
1 -0.5 -0.25
0.75 -0.75 0
1 -0.75 0
0.75 -0.5 0
1 -0.5 0
0.5 -0.75 -0.25
0.75 -0.75 -0.25
0.5 -0.5 -0.25
0.75 -0.5 -0.25
0.5 -0.75 0
0.75 -0.75 0
0.5 -0.5 0
0.75 -0.5 0
0.5 -0.5 -0.5
0.75 -0.5 -0.5
0.5 -0.25 -0.5
0.75 -0.25 -0.5
0.5 -0.5 -0.25
0.75 -0.5 -0.25
0.5 -0.25 -0.25
0.75 -0.25 -0.25
0.75 -0.5 -0.5
1 -0.5 -0.5
0.75 -0.25 -0.5
1 -0.25 -0.5
0.75 -0.5 -0.25
1 -0.5 -0.25
0.75 -0.25 -0.25
1 -0.25 -0.25
0.75 -0.25 -0.5
1 -0.25 -0.5
0.75 0 -0.5
1 0 -0.5
0.75 -0.25 -0.25
1 -0.25 -0.25
0.75 0 -0.25
1 0 -0.25
0.5 -0.25 -0.5
0.75 -0.25 -0.5
0.5 0 -0.5
0.75 0 -0.5
0.5 -0.25 -0.25
0.75 -0.25 -0.25
0.5 0 -0.25
0.75 0 -0.25
0.5 -0.5 -0.25
0.75 -0.5 -0.25
0.5 -0.25 -0.25
0.75 -0.25 -0.25
0.5 -0.5 0
0.75 -0.5 0
0.5 -0.25 0
0.75 -0.25 0
0.75 -0.5 -0.25
1 -0.5 -0.25
0.75 -0.25 -0.25
1 -0.25 -0.25
0.75 -0.5 0
1 -0.5 0
0.75 -0.25 0
1 -0.25 0
0.75 -0.25 -0.25
1 -0.25 -0.25
0.75 0 -0.25
1 0 -0.25
0.75 -0.25 0
1 -0.25 0
0.75 0 0
1 0 0
0.5 -0.25 -0.25
0.75 -0.25 -0.25
0.5 0 -0.25
0.75 0 -0.25
0.5 -0.25 0
0.75 -0.25 0
0.5 0 0
0.75 0 0
0 -0.5 -0.5
0.25 -0.5 -0.5
0 -0.25 -0.5
0.25 -0.25 -0.5
0 -0.5 -0.25
0.25 -0.5 -0.25
0 -0.25 -0.25
0.25 -0.25 -0.25
0.25 -0.5 -0.5
0.5 -0.5 -0.5
0.25 -0.25 -0.5
0.5 -0.25 -0.5
0.25 -0.5 -0.25
0.5 -0.5 -0.25
0.25 -0.25 -0.25
0.5 -0.25 -0.25
0.25 -0.25 -0.5
0.5 -0.25 -0.5
0.25 0 -0.5
0.5 0 -0.5
0.25 -0.25 -0.25
0.5 -0.25 -0.25
0.25 0 -0.25
0.5 0 -0.25
0 -0.25 -0.5
0.25 -0.25 -0.5
0 0 -0.5
0.25 0 -0.5
0 -0.25 -0.25
0.25 -0.25 -0.25
0 0 -0.25
0.25 0 -0.25
0 -0.5 -0.25
0.25 -0.5 -0.25
0 -0.25 -0.25
0.25 -0.25 -0.25
0 -0.5 0
0.25 -0.5 0
0 -0.25 0
0.25 -0.25 0
0.25 -0.5 -0.25
0.5 -0.5 -0.25
0.25 -0.25 -0.25
0.5 -0.25 -0.25
0.25 -0.5 0
0.5 -0.5 0
0.25 -0.25 0
0.5 -0.25 0
0.25 -0.25 -0.25
0.5 -0.25 -0.25
0.25 0 -0.25
0.5 0 -0.25
0.25 -0.25 0
0.5 -0.25 0
0.25 0 0
0.5 0 0
0 -0.25 -0.25
0.25 -0.25 -0.25
0 0 -0.25
0.25 0 -0.25
0 -0.25 0
0.25 -0.25 0
0 0 0
0.25 0 0
0 0 -1
0.25 0 -1
0 0.25 -1
0.25 0.25 -1
0 0 -0.75
0.25 0 -0.75
0 0.25 -0.75
0.25 0.25 -0.75
0.25 0 -1
0.5 0 -1
0.25 0.25 -1
0.5 0.25 -1
0.25 0 -0.75
0.5 0 -0.75
0.25 0.25 -0.75
0.5 0.25 -0.75
0.25 0.25 -1
0.5 0.25 -1
0.25 0.5 -1
0.5 0.5 -1
0.25 0.25 -0.75
0.5 0.25 -0.75
0.25 0.5 -0.75
0.5 0.5 -0.75
0 0.25 -1
0.25 0.25 -1
0 0.5 -1
0.25 0.5 -1
0 0.25 -0.75
0.25 0.25 -0.75
0 0.5 -0.75
0.25 0.5 -0.75
0 0 -0.75
0.25 0 -0.75
0 0.25 -0.75
0.25 0.25 -0.75
0 0 -0.5
0.25 0 -0.5
0 0.25 -0.5
0.25 0.25 -0.5
0.25 0 -0.75
0.5 0 -0.75
0.25 0.25 -0.75
0.5 0.25 -0.75
0.25 0 -0.5
0.5 0 -0.5
0.25 0.25 -0.5
0.5 0.25 -0.5
0.25 0.25 -0.75
0.5 0.25 -0.75
0.25 0.5 -0.75
0.5 0.5 -0.75
0.25 0.25 -0.5
0.5 0.25 -0.5
0.25 0.5 -0.5
0.5 0.5 -0.5
0 0.25 -0.75
0.25 0.25 -0.75
0 0.5 -0.75
0.25 0.5 -0.75
0 0.25 -0.5
0.25 0.25 -0.5
0 0.5 -0.5
0.25 0.5 -0.5
0.5 0 -1
0.75 0 -1
0.5 0.25 -1
0.75 0.25 -1
0.5 0 -0.75
0.75 0 -0.75
0.5 0.25 -0.75
0.75 0.25 -0.75
0.75 0 -1
1 0 -1
0.75 0.25 -1
1 0.25 -1
0.75 0 -0.75
1 0 -0.75
0.75 0.25 -0.75
1 0.25 -0.75
0.75 0.25 -1
1 0.25 -1
0.75 0.5 -1
1 0.5 -1
0.75 0.25 -0.75
1 0.25 -0.75
0.75 0.5 -0.75
1 0.5 -0.75
0.5 0.25 -1
0.75 0.25 -1
0.5 0.5 -1
0.75 0.5 -1
0.5 0.25 -0.75
0.75 0.25 -0.75
0.5 0.5 -0.75
0.75 0.5 -0.75
0.5 0 -0.75
0.75 0 -0.75
0.5 0.25 -0.75
0.75 0.25 -0.75
0.5 0 -0.5
0.75 0 -0.5
0.5 0.25 -0.5
0.75 0.25 -0.5
0.75 0 -0.75
1 0 -0.75
0.75 0.25 -0.75
1 0.25 -0.75
0.75 0 -0.5
1 0 -0.5
0.75 0.25 -0.5
1 0.25 -0.5
0.75 0.25 -0.75
1 0.25 -0.75
0.75 0.5 -0.75
1 0.5 -0.75
0.75 0.25 -0.5
1 0.25 -0.5
0.75 0.5 -0.5
1 0.5 -0.5
0.5 0.25 -0.75
0.75 0.25 -0.75
0.5 0.5 -0.75
0.75 0.5 -0.75
0.5 0.25 -0.5
0.75 0.25 -0.5
0.5 0.5 -0.5
0.75 0.5 -0.5
0.5 0.5 -1
0.75 0.5 -1
0.5 0.75 -1
0.75 0.75 -1
0.5 0.5 -0.75
0.75 0.5 -0.75
0.5 0.75 -0.75
0.75 0.75 -0.75
0.75 0.5 -1
1 0.5 -1
0.75 0.75 -1
1 0.75 -1
0.75 0.5 -0.75
1 0.5 -0.75
0.75 0.75 -0.75
1 0.75 -0.75
0.75 0.75 -1
1 0.75 -1
0.75 1 -1
1 1 -1
0.75 0.75 -0.75
1 0.75 -0.75
0.75 1 -0.75
1 1 -0.75
0.5 0.75 -1
0.75 0.75 -1
0.5 1 -1
0.75 1 -1
0.5 0.75 -0.75
0.75 0.75 -0.75
0.5 1 -0.75
0.75 1 -0.75
0.5 0.5 -0.75
0.75 0.5 -0.75
0.5 0.75 -0.75
0.75 0.75 -0.75
0.5 0.5 -0.5
0.75 0.5 -0.5
0.5 0.75 -0.5
0.75 0.75 -0.5
0.75 0.5 -0.75
1 0.5 -0.75
0.75 0.75 -0.75
1 0.75 -0.75
0.75 0.5 -0.5
1 0.5 -0.5
0.75 0.75 -0.5
1 0.75 -0.5
0.75 0.75 -0.75
1 0.75 -0.75
0.75 1 -0.75
1 1 -0.75
0.75 0.75 -0.5
1 0.75 -0.5
0.75 1 -0.5
1 1 -0.5
0.5 0.75 -0.75
0.75 0.75 -0.75
0.5 1 -0.75
0.75 1 -0.75
0.5 0.75 -0.5
0.75 0.75 -0.5
0.5 1 -0.5
0.75 1 -0.5
0 0.5 -1
0.25 0.5 -1
0 0.75 -1
0.25 0.75 -1
0 0.5 -0.75
0.25 0.5 -0.75
0 0.75 -0.75
0.25 0.75 -0.75
0.25 0.5 -1
0.5 0.5 -1
0.25 0.75 -1
0.5 0.75 -1
0.25 0.5 -0.75
0.5 0.5 -0.75
0.25 0.75 -0.75
0.5 0.75 -0.75
0.25 0.75 -1
0.5 0.75 -1
0.25 1 -1
[...]
<CellData Scalars="attribute">
<DataArray type="Int32" Name="attribute" format="ascii">
1
1
1
1
1
1
1
1
1
1
1
1
1
1
1
1
1
1
1
1
1
1
1
1
1
1
1
1
1
1
1
1
1
1
1
1
1
1
1
1
1
1
1
1
1
1
1
1
1
1
1
1
1
1
1
1
1
1
1
1
1
1
1
1
1
1
1
1
1
1
1
1
1
1
1
1
1
1
1
1
1
1
1
1
1
1
1
1
1
1
1
1
1
1
1
1
1
1
1
1
1
1
1
1
1
1
1
1
1
1
1
1
1
1
1
1
1
1
1
1
1
1
1
1
1
1
1
1
1
1
1
1
1
1
1
1
1
1
1
1
1
1
1
1
1
1
1
1
1
1
1
1
1
1
1
1
1
1
1
1
1
1
1
1
1
1
1
1
1
1
1
1
1
1
1
1
1
1
1
1
1
1
1
1
1
1
1
1
1
1
1
1
1
1
1
1
1
1
1
1
1
1
1
1
1
1
1
1
1
1
1
1
1
1
1
1
1
1
1
1
1
1
1
1
1
1
1
1
1
1
1
1
1
1
1
1
1
1
1
1
1
1
1
1
1
1
1
1
1
1
1
1
1
1
1
1
1
1
1
1
1
1
1
1
1
1
1
1
1
1
1
1
1
1
1
1
1
1
1
1
1
1
1
1
1
1
1
1
1
1
1
1
1
1
1
1
1
1
1
1
1
1
1
1
1
1
1
1
1
1
1
1
1
1
1
1
1
1
1
1
1
1
1
1
1
1
1
1
1
1
1
1
1
1
1
1
1
1
1
1
1
1
1
1
1
1
1
1
1
1
1
1
1
1
1
1
1
1
1
1
1
1
1
1
1
1
1
1
1
1
1
1
1
1
1
1
1
1
1
1
1
1
1
1
1
1
1
1
1
1
1
1
1
1
1
1
1
1
1
1
1
1
1
1
1
1
1
1
1
1
1
1
1
1
1
1
1
1
1
1
1
1
1
1
1
1
1
1
1
1
1
1
1
1
1
1
1
1
1
1
1
1
1
1
1
1
1
1
</DataArray>
</CellData>
<PointData >
<DataArray type="Float64" Name="db_dt_field" NumberOfComponents="3" ComponentName0="0" ComponentName1="1" ComponentName2="2" format="ascii" >
-2.90233862 2.90233862 -2.90233862 
-2.90220268 2.90233862 -2.90233862 
-2.90233862 2.90220268 -2.90233862 
-2.90220268 2.90220268 -2.90233862 
-2.90233862 2.90233862 -2.90221307 
-2.90220268 2.90233862 -2.90221307 
-2.90233862 2.90220268 -2.90221307 
-2.90220268 2.90220268 -2.90221307 
-2.90220268 1.20218802 -2.90233862 
-2.902202 1.20218802 -2.90233862 
-2.90220268 1.20212866 -2.90233862 
-2.902202 1.20212866 -2.90233862 
-2.90220268 1.20218802 -2.90220802 
-2.902202 1.20218802 -2.90220802 
-2.90220268 1.20212866 -2.90220802 
-2.902202 1.20212866 -2.90220802 
-2.90220764 1.20212866 -1.20218802 
-2.902209 1.20212866 -1.20218802 
-2.90220764 1.20212706 -1.20218802 
-2.902209 1.20212706 -1.20218802 
-2.90220764 1.20212866 -1.20213402 
-2.902209 1.20212866 -1.20213402 
-2.90220764 1.20212706 -1.20213402 
-2.902209 1.20212706 -1.20213402 
-2.90233862 2.90220268 -1.20218802 
-2.90220764 2.90220268 -1.20218802 
-2.90233862 2.9022019 -1.20218802 
-2.90220764 2.9022019 -1.20218802 
-2.90233862 2.90220268 -1.20213907 
-2.90220764 2.90220268 -1.20213907 
-2.90233862 2.9022019 -1.20213907 
-2.90220764 2.9022019 -1.20213907 
-1.20218802 2.90233862 -2.90221307 
-1.20212856 2.90233862 -2.90221307 
-1.20218802 2.90220762 -2.90221307 
-1.20212856 2.90220762 -2.90221307 
-1.20218802 2.90233862 -2.90221667 
-1.20212856 2.90233862 -2.90221667 
-1.20218802 2.90220762 -2.90221667 
-1.20212856 2.90220762 -2.90221667 
-1.20212856 1.20218802 -2.90220802 
-1.20212703 1.20218802 -2.90220802 
-1.20212856 1.2021336 -2.90220802 
-1.20212703 1.2021336 -2.90220802 
-1.20212856 1.20218802 -2.90220938 
-1.20212703 1.20218802 -2.90220938 
-1.20212856 1.2021336 -2.90220938 
-1.20212703 1.2021336 -2.90220938 
-1.20213353 1.2021336 -1.20213402 
-1.20213404 1.2021336 -1.20213402 
-1.20213353 1.20213407 -1.20213402 
-1.20213404 1.20213407 -1.20213402 
-1.20213353 1.2021336 -1.20213465 
-1.20213404 1.2021336 -1.20213465 
-1.20213353 1.20213407 -1.20213465 
-1.20213404 1.20213407 -1.20213465 
-1.20218802 2.90220762 -1.20213907 
-1.20213353 2.90220762 -1.20213907 
-1.20218802 2.90220893 -1.20213907 
-1.20213353 2.90220893 -1.20213907 
-1.20218802 2.90220762 -1.20214194 
-1.20213353 2.90220762 -1.20214194 
-1.20218802 2.90220893 -1.20214194 
-1.20213353 2.90220893 -1.20214194 
-2.902202 -1.20218802 -2.90233862 
-2.90220269 -1.20218802 -2.90233862 
-2.902202 -1.20213905 -2.90233862 
-2.90220269 -1.20213905 -2.90233862 
-2.902202 -1.20218802 -2.9022077 
-2.90220269 -1.20218802 -2.9022077 
-2.902202 -1.20213905 -2.9022077 
-2.90220269 -1.20213905 -2.9022077 
-2.90220269 -2.90233862 -2.90233862 
-2.90233862 -2.90233862 -2.90233862 
-2.90220269 -2.90221305 -2.90233862 
-2.90233862 -2.90221305 -2.90233862 
-2.90220269 -2.90233862 -2.90220269 
-2.90233862 -2.90233862 -2.90220269 
-2.90220269 -2.90221305 -2.90220269 
-2.90233862 -2.90221305 -2.90220269 
-2.90220763 -2.90221305 -1.20218802 
-2.90233862 -2.90221305 -1.20218802 
-2.90220763 -2.90221651 -1.20218802 
-2.90233862 -2.90221651 -1.20218802 
-2.90220763 -2.90221305 -1.2021287 
-2.90233862 -2.90221305 -1.2021287 
-2.90220763 -2.90221651 -1.2021287 
-2.90233862 -2.90221651 -1.2021287 
-2.902209 -1.20213905 -1.20218802 
-2.90220763 -1.20213905 -1.20218802 
-2.902209 -1.20214175 -1.20218802 
-2.90220763 -1.20214175 -1.20218802 
-2.902209 -1.20213905 -1.20213371 
-2.90220763 -1.20213905 -1.20213371 
-2.902209 -1.20214175 -1.20213371 
-2.90220763 -1.20214175 -1.20213371 
-1.20212703 -1.20218802 -2.9022077 
-1.20212862 -1.20218802 -2.9022077 
-1.20212703 -1.20213412 -2.9022077 
-1.20212862 -1.20213412 -2.9022077 
-1.20212703 -1.20218802 -2.90220891 
-1.20212862 -1.20218802 -2.90220891 
-1.20212703 -1.20213412 -2.90220891 
-1.20212862 -1.20213412 -2.90220891 
-1.20212862 -2.90233862 -2.90220269 
-1.20218802 -2.90233862 -2.90220269 
-1.20212862 -2.90220812 -2.90220269 
-1.20218802 -2.90220812 -2.90220269 
-1.20212862 -2.90233862 -2.90220183 
-1.20218802 -2.90233862 -2.90220183 
-1.20212862 -2.90220812 -2.90220183 
-1.20218802 -2.90220812 -2.90220183 
-1.20213357 -2.90220812 -1.2021287 
-1.20218802 -2.90220812 -1.2021287 
-1.20213357 -2.90220953 -1.2021287 
-1.20218802 -2.90220953 -1.2021287 
-1.20213357 -2.90220812 -1.20212709 
-1.20218802 -2.90220812 -1.20212709 
-1.20213357 -2.90220953 -1.20212709 
-1.20218802 -2.90220953 -1.20212709 
-1.20213404 -1.20213412 -1.20213371 
-1.20213357 -1.20213412 -1.20213371 
-1.20213404 -1.20213477 -1.20213371 
-1.20213357 -1.20213477 -1.20213371 
-1.20213404 -1.20213412 -1.20213417 
-1.20213357 -1.20213412 -1.20213417 
-1.20213404 -1.20213477 -1.20213417 
-1.20213357 -1.20213477 -1.20213417 
-2.90220927 -1.20214175 1.20218802 
-2.9022078 -1.20214175 1.20218802 
-2.90220927 -1.20213957 1.20218802 
-2.9022078 -1.20213957 1.20218802 
-2.90220927 -1.20214175 1.20213399 
-2.9022078 -1.20214175 1.20213399 
-2.90220927 -1.20213957 1.20213399 
-2.9022078 -1.20213957 1.20213399 
-2.9022078 -2.90221651 1.20218802 
-2.90233862 -2.90221651 1.20218802 
-2.9022078 -2.90221419 1.20218802 
-2.90233862 -2.90221419 1.20218802 
-2.9022078 -2.90221651 1.202139 
-2.90233862 -2.90221651 1.202139 
-2.9022078 -2.90221419 1.202139 
-2.90233862 -2.90221419 1.202139 
-2.90220791 -2.90221419 2.90233862 
-2.90233862 -2.90221419 2.90233862 
-2.90220791 -2.90220896 2.90233862 
-2.90233862 -2.90220896 2.90233862 
-2.90220791 -2.90221419 2.902213 
-2.90233862 -2.90221419 2.902213 
-2.90220791 -2.90220896 2.902213 
-2.90233862 -2.90220896 2.902213 
-2.90220943 -1.20213957 2.90233862 
-2.90220791 -1.20213957 2.90233862 
-2.90220943 -1.20213441 2.90233862 
-2.90220791 -1.20213441 2.90233862 
-2.90220943 -1.20213957 2.90220802 
-2.90220791 -1.20213957 2.90220802 
-2.90220943 -1.20213441 2.90220802 
-2.90220791 -1.20213441 2.90220802 
-1.20213433 -1.20213477 1.20213399 
-1.20213374 -1.20213477 1.20213399 
-1.20213433 -1.2021346 1.20213399 
-1.20213374 -1.2021346 1.20213399 
-1.20213433 -1.20213477 1.20213459 
-1.20213374 -1.20213477 1.20213459 
-1.20213433 -1.2021346 1.20213459 
-1.20213374 -1.2021346 1.20213459 
-1.20213374 -2.90220953 1.202139 
-1.20218802 -2.90220953 1.202139 
-1.20213374 -2.90220924 1.202139 
-1.20218802 -2.90220924 1.202139 
-1.20213374 -2.90220953 1.20214167 
-1.20218802 -2.90220953 1.20214167 
-1.20213374 -2.90220924 1.20214167 
-1.20218802 -2.90220924 1.20214167 
-1.20213387 -2.90220924 2.902213 
-1.20218802 -2.90220924 2.902213 
-1.20213387 -2.90220893 2.902213 
-1.20218802 -2.90220893 2.902213 
-1.20213387 -2.90220924 2.90221643 
-1.20218802 -2.90220924 2.90221643 
-1.20213387 -2.90220893 2.90221643 
-1.20218802 -2.90220893 2.90221643 
-1.20213456 -1.2021346 2.90220802 
-1.20213387 -1.2021346 2.90220802 
-1.20213456 -1.20213437 2.90220802 
-1.20213387 -1.20213437 2.90220802 
-1.20213456 -1.2021346 2.90220938 
-1.20213387 -1.2021346 2.90220938 
-1.20213456 -1.20213437 2.90220938 
-1.20213387 -1.20213437 2.90220938 
-2.90233862 2.9022019 1.20218802 
-2.90220789 2.9022019 1.20218802 
-2.90233862 2.90220376 1.20218802 
-2.90220789 2.90220376 1.20218802 
-2.90233862 2.9022019 1.20212869 
-2.90220789 2.9022019 1.20212869 
-2.90233862 2.90220376 1.20212869 
-2.90220789 2.90220376 1.20212869 
-2.90220789 1.20212706 1.20218802 
-2.90220927 1.20212706 1.20218802 
-2.90220789 1.20212908 1.20218802 
-2.90220927 1.20212908 1.20218802 
-2.90220789 1.20212706 1.20213371 
-2.90220927 1.20212706 1.20213371 
-2.90220789 1.20212908 1.20213371 
-2.90220927 1.20212908 1.20213371 
-2.90220844 1.20212908 2.90233862 
-2.90220943 1.20212908 2.90233862 
-2.90220844 1.20213381 2.90233862 
-2.90220943 1.20213381 2.90233862 
-2.90220844 1.20212908 2.90220779 
-2.90220943 1.20212908 2.90220779 
-2.90220844 1.20213381 2.90220779 
-2.90220943 1.20213381 2.90220779 
-2.90233862 2.90220376 2.90233862 
-2.90220844 2.90220376 2.90233862 
-2.90233862 2.9022085 2.90233862 
-2.90220844 2.9022085 2.90233862 
-2.90233862 2.90220376 2.90220312 
-2.90220844 2.90220376 2.90220312 
-2.90233862 2.9022085 2.90220312 
-2.90220844 2.9022085 2.90220312 
-1.20218802 2.90220893 1.20212869 
-1.20213382 2.90220893 1.20212869 
-1.20218802 2.90220909 1.20212869 
-1.20213382 2.90220909 1.20212869 
-1.20218802 2.90220893 1.20212687 
-1.20213382 2.90220893 1.20212687 
-1.20218802 2.90220909 1.20212687 
-1.20213382 2.90220909 1.20212687 
-1.20213382 1.20213407 1.20213371 
-1.20213433 1.20213407 1.20213371 
-1.20213382 1.20213409 1.20213371 
-1.20213433 1.20213409 1.20213371 
-1.20213382 1.20213407 1.20213413 
-1.20213433 1.20213407 1.20213413 
-1.20213382 1.20213409 1.20213413 
-1.20213433 1.20213409 1.20213413 
-1.20213437 1.20213409 2.90220779 
-1.20213456 1.20213409 2.90220779 
-1.20213437 1.20213402 2.90220779 
-1.20213456 1.20213402 2.90220779 
-1.20213437 1.20213409 2.90220901 
-1.20213456 1.20213409 2.90220901 
-1.20213437 1.20213402 2.90220901 
-1.20213456 1.20213402 2.90220901 
-1.20218802 2.90220909 2.90220312 
-1.20213437 2.90220909 2.90220312 
-1.20218802 2.9022079 2.90220312 
-1.20213437 2.9022079 2.90220312 
-1.20218802 2.90220909 2.90220229 
-1.20213437 2.90220909 2.90220229 
-1.20218802 2.9022079 2.90220229 
-1.20213437 2.9022079 2.90220229 
1.20218802 2.90233862 -2.90221667 
1.20213949 2.90233862 -2.90221667 
1.20218802 2.90220775 -2.90221667 
1.20213949 2.90220775 -2.90221667 
1.20218802 2.90233862 -2.90221493 
1.20213949 2.90233862 -2.90221493 
1.20218802 2.90220775 -2.90221493 
1.20213949 2.90220775 -2.90221493 
1.20213949 1.20218802 -2.90220938 
1.20214206 1.20218802 -2.90220938 
1.20213949 1.20213375 -2.90220938 
1.20214206 1.20213375 -2.90220938 
1.20213949 1.20218802 -2.90220889 
1.20214206 1.20218802 -2.90220889 
1.20213949 1.20213375 -2.90220889 
1.20214206 1.20213375 -2.90220889 
1.20213454 1.20213375 -1.20213465 
1.20213506 1.20213375 -1.20213465 
1.20213454 1.20213431 -1.20213465 
1.20213506 1.20213431 -1.20213465 
1.20213454 1.20213375 -1.20213431 
1.20213506 1.20213375 -1.20213431 
1.20213454 1.20213431 -1.20213431 
1.20213506 1.20213431 -1.20213431 
1.20218802 2.90220775 -1.20214194 
1.20213454 2.90220775 -1.20214194 
1.20218802 2.90220918 -1.20214194 
1.20213454 2.90220918 -1.20214194 
1.20218802 2.90220775 -1.20214047 
1.20213454 2.90220775 -1.20214047 
1.20218802 2.90220918 -1.20214047 
1.20213454 2.90220918 -1.20214047 
2.90233862 2.90233862 -2.90221493 
2.90221381 2.90233862 -2.90221493 
2.90233862 2.9022077 -2.90221493 
2.90221381 2.9022077 -2.90221493 
2.90233862 2.90233862 -2.90219803 
2.90221381 2.90233862 -2.90219803 
2.90233862 2.9022077 -2.90219803 
2.90221381 2.9022077 -2.90219803 
2.90221381 1.20218802 -2.90220889 
2.90221696 1.20218802 -2.90220889 
2.90221381 1.20213382 -2.90220889 
2.90221696 1.20213382 -2.90220889 
2.90221381 1.20218802 -2.90220837 
2.90221696 1.20218802 -2.90220837 
2.90221381 1.20213382 -2.90220837 
2.90221696 1.20213382 -2.90220837 
2.90220888 1.20213382 -1.20213431 
2.90221 1.20213382 -1.20213431 
2.90220888 1.20213442 -1.20213431 
2.90221 1.20213442 -1.20213431 
2.90220888 1.20213382 -1.20213386 
2.90221 1.20213382 -1.20213386 
2.90220888 1.20213442 -1.20213386 
2.90221 1.20213442 -1.20213386 
2.90233862 2.9022077 -1.20214047 
2.90220888 2.9022077 -1.20214047 
2.90233862 2.90220906 -1.20214047 
2.90220888 2.90220906 -1.20214047 
2.90233862 2.9022077 -1.2021231 
2.90220888 2.9022077 -1.2021231 
2.90233862 2.90220906 -1.2021231 
2.90220888 2.90220906 -1.2021231 
1.20214206 -1.20218802 -2.90220891 
1.20213916 -1.20218802 -2.90220891 
1.20214206 -1.20213397 -2.90220891 
1.20213916 -1.20213397 -2.90220891 
1.20214206 -1.20218802 -2.90220869 
1.20213916 -1.20218802 -2.90220869 
1.20214206 -1.20213397 -2.90220869 
1.20213916 -1.20213397 -2.90220869 
1.20213916 -2.90233862 -2.90220183 
1.20218802 -2.90233862 -2.90220183 
1.20213916 -2.90220797 -2.90220183 
1.20218802 -2.90220797 -2.90220183 
1.20213916 -2.90233862 -2.90220374 
1.20218802 -2.90233862 -2.90220374 
1.20213916 -2.90220797 -2.90220374 
1.20218802 -2.90220797 -2.90220374 
1.20213422 -2.90220797 -1.20212709 
1.20218802 -2.90220797 -1.20212709 
1.20213422 -2.90220931 -1.20212709 
1.20218802 -2.90220931 -1.20212709 
1.20213422 -2.90220797 -1.20212912 
1.20218802 -2.90220797 -1.20212912 
1.20213422 -2.90220931 -1.20212912 
1.20218802 -2.90220931 -1.20212912 
1.20213506 -1.20213397 -1.20213417 
1.20213422 -1.20213397 -1.20213417 
1.20213506 -1.20213454 -1.20213417 
1.20213422 -1.20213454 -1.20213417 
1.20213506 -1.20213397 -1.20213408 
1.20213422 -1.20213397 -1.20213408 
1.20213506 -1.20213454 -1.20213408 
1.20213422 -1.20213454 -1.20213408 
2.90221696 -1.20218802 -2.90220869 
2.90221317 -1.20218802 -2.90220869 
2.90221696 -1.20213387 -2.90220869 
2.90221317 -1.20213387 -2.90220869 
2.90221696 -1.20218802 -2.90220873 
2.90221317 -1.20218802 -2.90220873 
2.90221696 -1.20213387 -2.90220873 
2.90221317 -1.20213387 -2.90220873 
2.90221317 -2.90233862 -2.90220374 
2.90233862 -2.90233862 -2.90220374 
2.90221317 -2.90220786 -2.90220374 
2.90233862 -2.90220786 -2.90220374 
2.90221317 -2.90233862 -2.90220883 
2.90233862 -2.90233862 -2.90220883 
2.90221317 -2.90220786 -2.90220883 
2.90233862 -2.90220786 -2.90220883 
2.90220823 -2.90220786 -1.20212912 
2.90233862 -2.90220786 -1.20212912 
2.90220823 -2.90220915 -1.20212912 
2.90233862 -2.90220915 -1.20212912 
2.90220823 -2.90220786 -1.20213424 
2.90233862 -2.90220786 -1.20213424 
2.90220823 -2.90220915 -1.20213424 
2.90233862 -2.90220915 -1.20213424 
2.90221 -1.20213387 -1.20213408 
2.90220823 -1.20213387 -1.20213408 
2.90221 -1.20213439 -1.20213408 
2.90220823 -1.20213439 -1.20213408 
2.90221 -1.20213387 -1.20213415 
2.90220823 -1.20213387 -1.20213415 
2.90221 -1.20213439 -1.20213415 
2.90220823 -1.20213439 -1.20213415 
1.20213476 -1.20213454 1.20213459 
1.20213404 -1.20213454 1.20213459 
1.20213476 -1.20213439 1.20213459 
1.20213404 -1.20213439 1.20213459 
1.20213476 -1.20213454 1.20213449 
1.20213404 -1.20213454 1.20213449 
1.20213476 -1.20213439 1.20213449 
1.20213404 -1.20213439 1.20213449 
1.20213404 -2.90220931 1.20214167 
1.20218802 -2.90220931 1.20214167 
1.20213404 -2.90220907 1.20214167 
1.20218802 -2.90220907 1.20214167 
1.20213404 -2.90220931 1.20213947 
1.20218802 -2.90220931 1.20213947 
1.20213404 -2.90220907 1.20213947 
1.20218802 -2.90220907 1.20213947 
1.20213389 -2.90220907 2.90221643 
1.20218802 -2.90220907 2.90221643 
1.20213389 -2.9022089 2.90221643 
1.20218802 -2.9022089 2.90221643 
1.20213389 -2.90220907 2.9022141 
1.20218802 -2.90220907 2.9022141 
1.20213389 -2.9022089 2.9022141 
1.20218802 -2.9022089 2.9022141 
1.20213442 -1.20213439 2.90220938 
1.20213389 -1.20213439 2.90220938 
1.20213442 -1.2021343 2.90220938 
1.20213389 -1.2021343 2.90220938 
1.20213442 -1.20213439 2.90220912 
1.20213389 -1.20213439 2.90220912 
1.20213442 -1.2021343 2.90220912 
1.20213389 -1.2021343 2.90220912 
2.90220974 -1.20213439 1.20213449 
2.90220806 -1.20213439 1.20213449 
2.90220974 -1.20213427 1.20213449 
2.90220806 -1.20213427 1.20213449 
2.90220974 -1.20213439 1.20213437 
2.90220806 -1.20213439 1.20213437 
2.90220974 -1.20213427 1.20213437 
2.90220806 -1.20213427 1.20213437 
2.90220806 -2.90220915 1.20213947 
2.90233862 -2.90220915 1.20213947 
2.90220806 -2.90220894 1.20213947 
2.90233862 -2.90220894 1.20213947 
2.90220806 -2.90220915 1.2021343 
2.90233862 -2.90220915 1.2021343 
2.90220806 -2.90220894 1.2021343 
2.90233862 -2.90220894 1.2021343 
2.90220791 -2.90220894 2.9022141 
2.90233862 -2.90220894 2.9022141 
2.90220791 -2.90220888 2.9022141 
2.90233862 -2.90220888 2.9022141 
2.90220791 -2.90220894 2.90220888 
2.90233862 -2.90220894 2.90220888 
2.90220791 -2.90220888 2.90220888 
2.90233862 -2.90220888 2.90220888 
2.90220939 -1.20213427 2.90220912 
2.90220791 -1.20213427 2.90220912 
2.90220939 -1.20213425 2.90220912 
2.90220791 -1.20213425 2.90220912 
2.90220939 -1.20213427 2.90220892 
2.90220791 -1.20213427 2.90220892 
2.90220939 -1.20213425 2.90220892 
2.90220791 -1.20213425 2.90220892 
1.20218802 2.90220918 1.20212687 
1.20213422 2.90220918 1.20212687 
1.20218802 2.90220984 1.20212687 
1.20213422 2.90220984 1.20212687 
1.20218802 2.90220918 1.20212787 
1.20213422 2.90220918 1.20212787 
1.20218802 2.90220984 1.20212787 
1.20213422 2.90220984 1.20212787 
1.20213422 1.20213431 1.20213413 
1.20213476 1.20213431 1.20213413 
1.20213422 1.20213436 1.20213413 
1.20213476 1.20213436 1.20213413 
1.20213422 1.20213431 1.20213423 
1.20213476 1.20213431 1.20213423 
1.20213422 1.20213436 1.20213423 
1.20213476 1.20213436 1.20213423 
1.20213362 1.20213436 2.90220901 
1.20213442 1.20213436 2.90220901 
1.20213362 1.20213436 2.90220901 
1.20213442 1.20213436 2.90220901 
1.20213362 1.20213436 2.90220888 
1.20213442 1.20213436 2.90220888 
1.20213362 1.20213436 2.90220888 
1.20213442 1.20213436 2.90220888 
1.20218802 2.90220984 2.90220229 
1.20213362 2.90220984 2.90220229 
1.20218802 2.90220728 2.90220229 
1.20213362 2.90220728 2.90220229 
1.20218802 2.90220984 2.90220281 
1.20213362 2.90220984 2.90220281 
1.20218802 2.90220728 2.90220281 
1.20213362 2.90220728 2.90220281 
2.90233862 2.90220906 1.20212787 
2.90220862 2.90220906 1.20212787 
2.90233862 2.9022101 1.20212787 
2.90220862 2.9022101 1.20212787 
2.90233862 2.90220906 1.20214572 
2.90220862 2.90220906 1.20214572 
2.90233862 2.9022101 1.20214572 
2.90220862 2.9022101 1.20214572 
2.90220862 1.20213442 1.20213423 
2.90220974 1.20213442 1.20213423 
2.90220862 1.20213448 1.20213423 
2.90220974 1.20213448 1.20213423 
2.90220862 1.20213442 1.20213452 
2.90220974 1.20213442 1.20213452 
2.90220862 1.20213448 1.20213452 
2.90220974 1.20213448 1.20213452 
2.90220802 1.20213448 2.90220888 
2.90220939 1.20213448 2.90220888 
2.90220802 1.20213463 2.90220888 
2.90220939 1.20213463 2.90220888 
2.90220802 1.20213448 2.90220882 
2.90220939 1.20213448 2.90220882 
2.90220802 1.20213463 2.90220882 
2.90220939 1.20213463 2.90220882 
2.90233862 2.9022101 2.90220281 
2.90220802 2.9022101 2.90220281 
2.90233862 2.90220826 2.90220281 
2.90220802 2.90220826 2.90220281 
2.90233862 2.9022101 2.90221895 
2.90220802 2.9022101 2.90221895 
2.90233862 2.90220826 2.90221895 
2.90220802 2.90220826 2.90221895 
-2.90219803 2.9022085 2.90233862 
-2.90220924 2.9022085 2.90233862 
-2.90219803 2.90221354 2.90233862 
-2.90220924 2.90221354 2.90233862 
-2.90219803 2.9022085 2.90220754 
-2.90220924 2.9022085 2.90220754 
-2.90219803 2.90221354 2.90220754 
-2.90220924 2.90221354 2.90220754 
-2.90220924 1.20213381 2.90233862 
-2.90220935 1.20213381 2.90233862 
-2.90220924 1.20213912 2.90233862 
-2.90220935 1.20213912 2.90233862 
-2.90220924 1.20213381 2.90220785 
-2.90220935 1.20213381 2.90220785 
-2.90220924 1.20213912 2.90220785 
-2.90220935 1.20213912 2.90220785 
-2.90220875 1.20213912 1.20218802 
-2.90220929 1.20213912 1.20218802 
-2.90220875 1.20214164 1.20218802 
-2.90220929 1.20214164 1.20218802 
-2.90220875 1.20213912 1.20213395 
-2.90220929 1.20213912 1.20213395 
-2.90220875 1.20214164 1.20213395 
-2.90220929 1.20214164 1.20213395 