<VTKFile type="UnstructuredGrid" version="2.2" byte_order="LittleEndian">
<UnstructuredGrid>
<Piece NumberOfPoints="4916" NumberOfCells="1229">
<Points>
<DataArray type="Float64" NumberOfComponents="3" format="ascii">
1 0 0
0.990685946 -0.136166649 0
1.12460385 -0.0123779553 0
1.11183569 -0.155872661 0
0.990685946 -0.136166649 0
0.962917287 -0.269796771 0
1.11183569 -0.155872661 0
1.08498486 -0.297072211 0
0.962917287 -0.269796771 0
0.917211302 -0.39840109 0
1.08498486 -0.297072211 0
1.04572799 -0.435196492 0
0.917211302 -0.39840109 0
0.854419405 -0.51958395 0
1.04572799 -0.435196492 0
0.993718801 -0.581497892 0
0.854419405 -0.51958395 0
0.775711291 -0.631087944 0
0.993718801 -0.581497892 0
0.925173956 -0.764951821 0
0.775711291 -0.631087944 0
0.682553143 -0.730835964 0
0.925173956 -0.764951821 0
0.765602688 -0.871114783 0
0.682553143 -0.730835964 0
0.576680322 -0.816969893 0
0.765602688 -0.871114783 0
0.63015645 -0.952547356 0
0.576680322 -0.816969893 0
0.460065038 -0.887885218 0
0.63015645 -0.952547356 0
0.497310957 -1.01818194 0
0.460065038 -0.887885218 0
0.334879612 -0.942260922 0
0.497310957 -1.01818194 0
0.362825286 -1.06886402 0
0.334879612 -0.942260922 0
0.203456013 -0.979084088 0
0.362825286 -1.06886402 0
0.226407096 -1.10185377 0
0.203456013 -0.979084088 0
0.0682424134 -0.997668769 0
0.226407096 -1.10185377 0
0.0912289925 -1.11692921 0
0.0682424134 -0.997668769 0
-0.0682424134 -0.997668769 0
0.0912289925 -1.11692921 0
-0.0368229028 -1.11466568 0
-0.203456013 -0.979084088 0
-0.334879612 -0.942260922 0
-0.285790355 -1.145175 0
-0.408452925 -1.06867652 0
-0.334879612 -0.942260922 0
-0.460065038 -0.887885218 0
-0.408452925 -1.06867652 0
-0.526576684 -0.996033618 0
-0.460065038 -0.887885218 0
-0.576680322 -0.816969893 0
-0.526576684 -0.996033618 0
-0.644035011 -0.917345041 0
-0.576680322 -0.816969893 0
-0.682553143 -0.730835964 0
-0.644035011 -0.917345041 0
-0.754833539 -0.829397879 0
-0.682553143 -0.730835964 0
-0.775711291 -0.631087944 0
-0.754833539 -0.829397879 0
-0.856669052 -0.731663293 0
-0.775711291 -0.631087944 0
-0.854419405 -0.51958395 0
-0.856669052 -0.731663293 0
-0.959018574 -0.619963636 0
-0.854419405 -0.51958395 0
-0.917211302 -0.39840109 0
-0.959018574 -0.619963636 0
-1.08306313 -0.478276176 0
-0.917211302 -0.39840109 0
-0.962917287 -0.269796771 0
-1.08306313 -0.478276176 0
-1.10791603 -0.28853112 0
-0.962917287 -0.269796771 0
-0.990685946 -0.136166649 0
-1.10791603 -0.28853112 0
-1.12108878 -0.135607867 0
-0.990685946 -0.136166649 0
-1 1.2246468e-16 0
-1.12108878 -0.135607867 0
-1.12266948 0.00785888688 0
-1 1.2246468e-16 0
-0.990685946 0.136166649 0
-1.12266948 0.00785888688 0
-1.11056285 0.149702817 0
-0.990685946 0.136166649 0
-0.962917287 0.269796771 0
-1.11056285 0.149702817 0
-1.08377066 0.289890728 0
-0.962917287 0.269796771 0
-0.917211302 0.39840109 0
-1.08377066 0.289890728 0
-1.04358902 0.427001902 0
-0.917211302 0.39840109 0
-0.854419405 0.51958395 0
-1.04358902 0.427001902 0
-0.989765378 0.57008867 0
-0.854419405 0.51958395 0
-0.775711291 0.631087944 0
-0.989765378 0.57008867 0
-0.915301449 0.746003058 0
-0.775711291 0.631087944 0
-0.682553143 0.730835964 0
-0.915301449 0.746003058 0
-0.757968736 0.854615808 0
-0.682553143 0.730835964 0
-0.576680322 0.816969893 0
-0.757968736 0.854615808 0
-0.628199375 0.936787043 0
-0.576680322 0.816969893 0
-0.460065038 0.887885218 0
-0.628199375 0.936787043 0
-0.501636744 1.00597625 0
-0.460065038 0.887885218 0
-0.334879612 0.942260922 0
-0.501636744 1.00597625 0
-0.369774234 1.06418471 0
-0.334879612 0.942260922 0
-0.203456013 0.979084088 0
-0.369774234 1.06418471 0
-0.231602883 1.10595771 0
-0.203456013 0.979084088 0
-0.0682424134 0.997668769 0
-0.231602883 1.10595771 0
-0.0900165741 1.13313186 0
-0.0682424134 0.997668769 0
0.0682424134 0.997668769 0
-0.0900165741 1.13313186 0
0.0622718399 1.15367756 0
0.0682424134 0.997668769 0
0.203456013 0.979084088 0
0.0622718399 1.15367756 0
0.247067213 1.17959152 0
0.203456013 0.979084088 0
0.334879612 0.942260922 0
0.247067213 1.17959152 0
0.40023475 1.08121863 0
0.334879612 0.942260922 0
0.460065038 0.887885218 0
0.40023475 1.08121863 0
0.527599984 0.999178732 0
0.460065038 0.887885218 0
0.576680322 0.816969893 0
0.527599984 0.999178732 0
0.645500914 0.916598188 0
0.576680322 0.816969893 0
0.682553143 0.730835964 0
0.645500914 0.916598188 0
0.757104902 0.827270674 0
0.682553143 0.730835964 0
0.775711291 0.631087944 0
0.757104902 0.827270674 0
0.86080363 0.729974626 0
0.775711291 0.631087944 0
0.854419405 0.51958395 0
0.86080363 0.729974626 0
0.964463627 0.617901712 0
0.854419405 0.51958395 0
0.917211302 0.39840109 0
0.964463627 0.617901712 0
1.08986247 0.474438842 0
0.917211302 0.39840109 0
0.962917287 0.269796771 0
1.08986247 0.474438842 0
1.11224698 0.284477337 0
0.962917287 0.269796771 0
0.990685946 0.136166649 0
1.11224698 0.284477337 0
1.12399304 0.131059904 0
0.990685946 0.136166649 0
1 0 0
1.12399304 0.131059904 0
1.12460385 -0.0123779553 0
-3 2 0
-3 1.86206897 0
-2.86046512 2 0
-2.8610729 1.86183828 0
-3 1.86206897 0
-3 1.72413793 0
-2.8610729 1.86183828 0
-2.86153443 1.72377609 0
-3 1.72413793 0
-3 1.5862069 0
-2.86153443 1.72377609 0
-2.86184497 1.58577612 0
-3 1.5862069 0
-3 1.44827586 0
-2.86184497 1.58577612 0
-2.86204098 1.44783092 0
-3 1.44827586 0
-3 1.31034483 0
-2.86204098 1.44783092 0
-2.86198125 1.30989723 0
-3 1.31034483 0
-3 1.17241379 0
-2.86198125 1.30989723 0
-2.86158598 1.1720361 0
-3 1.17241379 0
-3 1.03448276 0
-2.86158598 1.1720361 0
-2.86100392 1.03426552 0
-3 1.03448276 0
-3 0.896551724 0
-2.86100392 1.03426552 0
-2.86016023 0.896600668 0
-3 0.896551724 0
-3 0.75862069 0
-2.86016023 0.896600668 0
-2.85926921 0.758958592 0
-3 0.75862069 0
-3 0.620689655 0
-2.85926921 0.758958592 0
-2.85848589 0.621364047 0
-3 0.620689655 0
-3 0.482758621 0
-2.85848589 0.621364047 0
-2.85743407 0.483801059 0
-3 0.482758621 0
-3 0.344827586 0
-2.85743407 0.483801059 0
-2.85630797 0.34621361 0
-3 0.344827586 0
-3 0.206896552 0
-2.85630797 0.34621361 0
-2.85551145 0.208548464 0
-3 0.206896552 0
-3 0.0689655172 0
-2.85551145 0.208548464 0
-2.85512268 0.0708354402 0
-3 0.0689655172 0
-3 -0.0689655172 0
-2.85512268 0.0708354402 0
-2.85514529 -0.0670195315 0
-3 -0.0689655172 0
-3 -0.206896552 0
-2.85514529 -0.0670195315 0
-2.85509778 -0.204789091 0
-3 -0.206896552 0
-3 -0.344827586 0
-2.85509778 -0.204789091 0
-2.85533025 -0.342719163 0
-3 -0.344827586 0
-3 -0.482758621 0
-2.85533025 -0.342719163 0
-2.85535607 -0.480655413 0
-3 -0.482758621 0
-3 -0.620689655 0
-2.85535607 -0.480655413 0
-2.85532223 -0.61870829 0
-3 -0.620689655 0
-3 -0.75862069 0
-2.85532223 -0.61870829 0
-2.85575869 -0.756839981 0
-3 -0.75862069 0
-3 -0.896551724 0
-2.85575869 -0.756839981 0
-2.85667886 -0.895009346 0
-3 -0.896551724 0
-3 -1.03448276 0
-2.85667886 -0.895009346 0
-2.85793452 -1.0331472 0
-3 -1.03448276 0
-3 -1.17241379 0
-2.85793452 -1.0331472 0
-2.85914169 -1.17127295 0
-3 -1.17241379 0
-3 -1.31034483 0
-2.85914169 -1.17127295 0
-2.86006159 -1.30937363 0
-3 -1.31034483 0
-3 -1.44827586 0
-2.86006159 -1.30937363 0
-2.86060641 -1.44744761 0
-3 -1.44827586 0
-3 -1.5862069 0
-2.86060641 -1.44744761 0
-2.86084636 -1.5854741 0
-3 -1.5862069 0
-3 -1.72413793 0
-2.86084636 -1.5854741 0
-2.8609025 -1.72354692 0
-3 -1.72413793 0
-3 -1.86206897 0
-2.8609025 -1.72354692 0
-2.86068774 -1.86175061 0
-3 -1.86206897 0
-3 -2 0
-2.86068774 -1.86175061 0
-2.86046512 -2 0
3 -2 0
3 -1.86206897 0
2.86046512 -2 0
2.8602227 -1.86158968 0
3 -1.86206897 0
3 -1.72413793 0
2.8602227 -1.86158968 0
2.8598389 -1.72320576 0
3 -1.72413793 0
3 -1.5862069 0
2.8598389 -1.72320576 0
2.8593857 -1.58493586 0
3 -1.5862069 0
3 -1.44827586 0
2.8593857 -1.58493586 0
2.85887271 -1.44673411 0
3 -1.44827586 0
3 -1.31034483 0
2.85887271 -1.44673411 0
2.85814815 -1.30847499 0
3 -1.31034483 0
3 -1.17241379 0
2.85814815 -1.30847499 0
2.8568546 -1.17025047 0
3 -1.17241379 0
3 -1.03448276 0
2.8568546 -1.17025047 0
2.85577247 -1.03211132 0
3 -1.03448276 0
3 -0.896551724 0
2.85577247 -1.03211132 0
2.8546221 -0.894025296 0
3 -0.896551724 0
3 -0.75862069 0
2.8546221 -0.894025296 0
2.85363487 -0.756050687 0
3 -0.75862069 0
3 -0.620689655 0
2.85363487 -0.756050687 0
2.85266569 -0.618018634 0
3 -0.620689655 0
3 -0.482758621 0
2.85266569 -0.618018634 0
2.85254338 -0.480073802 0
3 -0.482758621 0
3 -0.344827586 0
2.85254338 -0.480073802 0
2.8528892 -0.342090902 0
3 -0.344827586 0
3 -0.206896552 0
2.8528892 -0.342090902 0
2.85375171 -0.204227578 0
3 -0.206896552 0
3 -0.0689655172 0
2.85375171 -0.204227578 0
2.85478271 -0.0663058565 0
3 -0.0689655172 0
3 0.0689655172 0
2.85478271 -0.0663058565 0
2.85649078 0.0709700839 0
3 0.0689655172 0
3 0.206896552 0
2.85649078 0.0709700839 0
2.85812325 0.2081011 0
3 0.206896552 0
3 0.344827586 0
2.85812325 0.2081011 0
2.85964793 0.344950427 0
3 0.344827586 0
3 0.482758621 0
2.85964793 0.344950427 0
2.86041305 0.481926216 0
3 0.482758621 0
3 0.620689655 0
2.86041305 0.481926216 0
2.86010419 0.618692003 0
3 0.620689655 0
3 0.75862069 0
2.86010419 0.618692003 0
2.85925242 0.755848929 0
3 0.75862069 0
3 0.896551724 0
2.85925242 0.755848929 0
2.85867295 0.893068501 0
3 0.896551724 0
3 1.03448276 0
2.85867295 0.893068501 0
2.85849862 1.030685 0
3 1.03448276 0
3 1.17241379 0
2.85849862 1.030685 0
2.85875075 1.16856316 0
3 1.17241379 0
3 1.31034483 0
2.85875075 1.16856316 0
2.85918697 1.30669338 0
3 1.31034483 0
3 1.44827586 0
2.85918697 1.30669338 0
2.85965974 1.44498374 0
3 1.44827586 0
3 1.5862069 0
2.85965974 1.44498374 0
2.86006279 1.58347476 0
3 1.5862069 0
3 1.72413793 0
2.86006279 1.58347476 0
2.86038556 1.72212707 0
3 1.72413793 0
3 1.86206897 0
2.86038556 1.72212707 0
2.86046776 1.86104259 0
3 1.86206897 0
3 2 0
2.86046776 1.86104259 0
2.86046512 2 0
-2.86046512 -2 0
-2.72093023 -2 0
-2.86068774 -1.86175061 0
-2.7214204 -1.86154135 0
-2.72093023 -2 0
-2.58139535 -2 0
-2.7214204 -1.86154135 0
-2.58207655 -1.86142999 0
-2.58139535 -2 0
-2.44186047 -2 0
-2.58207655 -1.86142999 0
-2.44285255 -1.86143225 0
-2.44186047 -2 0
[...]
<CellData Scalars="attribute">
<DataArray type="Int32" Name="attribute" format="ascii">
1
1
1
1
1
1
1
1
1
1
1
1
1
1
1
1
1
1
1
1
1
1
1
1
1
1
1
1
1
1
1
1
1
1
1
1
1
1
1
1
1
1
1
1
1
1
1
1
1
1
1
1
1
1
1
1
1
1
1
1
1
1
1
1
1
1
1
1
1
1
1
1
1
1
1
1
1
1
1
1
1
1
1
1
1
1
1
1
1
1
1
1
1
1
1
1
1
1
1
1
1
1
1
1
1
1
1
1
1
1
1
1
1
1
1
1
1
1
1
1
1
1
1
1
1
1
1
1
1
1
1
1
1
1
1
1
1
1
1
1
1
1
1
1
1
1
1
1
1
1
1
1
1
1
1
1
1
1
1
1
1
1
1
1
1
1
1
1
1
1
1
1
1
1
1
1
1
1
1
1
1
1
1
1
1
1
1
1
1
1
1
1
1
1
1
1
1
1
1
1
1
1
1
1
1
1
1
1
1
1
1
1
1
1
1
1
1
1
1
1
1
1
1
1
1
1
1
1
1
1
1
1
1
1
1
1
1
1
1
1
1
1
1
1
1
1
1
1
1
1
1
1
1
1
1
1
1
1
1
1
1
1
1
1
1
1
1
1
1
1
1
1
1
1
1
1
1
1
1
1
1
1
1
1
1
1
1
1
1
1
1
1
1
1
1
1
1
1
1
1
1
1
1
1
1
1
1
1
1
1
1
1
1
1
1
1
1
1
1
1
1
1
1
1
1
1
1
1
1
1
1
1
1
1
1
1
1
1
1
1
1
1
1
1
1
1
1
1
1
1
1
1
1
1
1
1
1
1
1
1
1
1
1
1
1
1
1
1
1
1
1
1
1
1
1
1
1
1
1
1
1
1
1
1
1
1
1
1
1
1
1
1
1
1
1
1
1
1
1
1
1
1
1
1
1
1
1
1
1
1
1
1
1
1
1
1
1
1
1
1
1
1
1
1
1
1
1
1
1
1
1
1
1
1
1
1
1
1
1
1
1
1
1
1
1
1
1
1
1
1
1
1
1
1
1
1
1
1
1
1
1
1
1
1
1
1
1
1
1
1
1
1
1
1
1
1
1
1
1
1
1
1
1
1
1
1
1
1
1
1
1
1
1
1
1
1
1
1
1
1
1
1
1
1
1
1
1
1
1
1
1
1
1
1
1
1
1
1
1
1
1
1
1
1
1
1
1
1
1
1
1
1
1
1
1
1
1
1
1
1
1
1
1
1
1
1
1
1
1
1
1
1
1
1
1
1
1
1
1
1
1
1
1
1
1
1
1
1
1
1
1
1
1
1
1
1
1
1
1
1
1
1
1
1
1
1
1
1
1
1
1
1
1
1
1
1
1
1
1
1
1
1
1
1
1
1
1
1
1
1
1
1
1
1
1
1
1
1
1
1
1
1
1
1
1
1
1
1
1
1
1
1
1
1
1
1
1
1
1
1
1
1
1
1
1
1
1
1
1
1
1
1
1
1
1
1
1
1
1
1
1
1
1
1
1
1
1
1
1
1
1
1
1
1
1
1
1
1
1
1
1
1
1
1
1
1
1
1
1
1
1
1
1
1
1
1
1
1
1
1
1
1
1
1
1
1
1
1
1
1
1
1
1
1
1
1
1
1
1
1
1
1
1
1
1
1
1
1
1
1
1
1
1
1
1
1
1
1
1
1
1
1
1
1
1
1
1
1
1
1
1
1
1
1
1
1
1
1
1
1
1
1
1
1
1
1
1
1
1
1
1
1
1
1
1
1
1
1
1
1
1
1
1
1
1
1
1
1
1
1
1
1
1
1
1
1
1
1
1
1
1
1
1
1
1
1
1
1
1
1
1
1
1
1
1
1
1
1
1
1
1
1
1
1
1
1
1
1
1
1
1
1
1
1
1
1
1
1
1
1
1
1
1
1
1
1
1
1
1
1
1
1
1
1
1
1
1
1
1
1
1
1
1
1
1
1
1
1
1
1
1
1
1
1
1
1
1
1
1
1
1
1
1
1
1
1
1
1
1
1
1
1
1
1
1
1
1
1
1
1
1
1
1
1
1
1
1
1
1
1
1
1
1
1
1
1
1
1
1
1
1
1
1
1
1
1
1
1
1
1
1
1
1
1
1
1
1
1
1
1
1
1
1
1
1
1
1
1
1
1
1
1
1
1
1
1
1
1
1
1
1
1
1
1
1
1
1
1
1
1
1
1
1
1
1
1
1
1
1
1
1
1
1
1
1
1
1
1
1
1
1
1
1
1
1
1
1
1
1
1
1
1
1
1
1
1
1
1
1
1
1
1
1
1
1
1
1
1
1
1
1
1
1
1
1
1
1
1
1
1
1
1
1
1
1
1
1
1
1
1
1
1
1
1
1
1
1
1
1
2
2
2
2
2
2
2
2
2
2
2
2
2
2
2
2
2
2
2
2
2
2
2
2
2
2
2
2
2
2
2
2
2
2
2
2
2
2
2
2
2
2
2
2
2
2
2
2
2
2
2
2
2
2
2
2
2
2
2
2
2
2
2
2
2
2
2
2
2
2
2
2
2
2
2
2
2
2
2
2
2
2
2
2
2
2
2
2
2
2
2
2
2
2
2
2
2
2
2
2
2
2
2
2
2
2
2
2
2
2
2
2
2
2
2
2
2
2
2
2
2
2
2
2
2
2
2
2
2
2
2
2
2
2
2
2
2
2
2
2
2
2
2
2
2
2
2
2
2
2
2
2
2
2
2
2
2
2
2
2
2
2
2
2
2
2
2
2
2
2
2
2
2
2
2
2
2
2
2
2
</DataArray>
</CellData>
<PointData >
<DataArray type="Float64" Name="Az" NumberOfComponents="1"  format="ascii" >
4.7423499
4.73695287
4.31050507
4.31077389
4.73695287
4.72157327
4.31077389
4.28776908
4.72157327
4.69823881
4.28776908
4.23788798
4.69823881
4.6650474
4.23788798
4.14169096
4.6650474
4.62245985
4.14169096
3.91955924
4.62245985
4.58449619
3.91955924
3.98760588
4.58449619
4.54115736
3.98760588
3.98805406
4.54115736
4.49788824
3.98805406
3.96623418
4.49788824
4.45943393
3.96623418
3.93700814
4.45943393
4.43180724
3.93700814
3.918879
4.43180724
4.41700675
3.918879
3.917253
4.41700675
4.41816493
3.917253
3.93528072
4.43088349
4.46232078
3.71391618
3.89313973
4.46232078
4.50113619
3.89313973
4.0053498
4.50113619
4.54402826
4.0053498
4.07809755
4.54402826
4.58759617
4.07809755
4.12788507
4.58759617
4.62976258
4.12788507
4.16035673
4.62976258
4.66595049
4.16035673
4.15796791
4.66595049
4.69369783
4.15796791
4.06831284
4.69369783
4.72162417
4.06831284
4.2282544
4.72162417
4.73780159
4.2282544
4.29200335
4.73780159
4.74262142
4.29200335
4.31686072
4.74262142
4.73700646
4.31686072
4.31781961
4.73700646
4.72125607
4.31781961
4.29828845
4.72125607
4.69794595
4.29828845
4.25549581
4.69794595
4.66506993
4.25549581
4.17314594
4.66506993
4.62342417
4.17314594
3.98713011
4.62342417
4.58529536
3.98713011
4.0506094
4.58529536
4.54197554
4.0506094
4.04259502
4.54197554
4.49853699
4.04259502
4.00362886
4.49853699
4.4596992
4.00362886
3.94795541
4.4596992
4.43180114
3.94795541
3.90045112
4.43180114
4.41750871
3.90045112
3.85532163
4.41750871
4.41768652
3.85532163
3.78200249
4.41768652
4.42872274
3.78200249
3.61273805
4.42872274
4.46097152
3.61273805
3.85831077
4.46097152
4.50025964
3.85831077
3.99364399
4.50025964
4.54349761
3.99364399
4.07821487
4.54349761
4.58722849
4.07821487
4.12942149
4.58722849
4.62943785
4.12942149
4.15450229
4.62943785
4.66567299
4.15450229
4.14777514
4.66567299
4.69340486
4.14777514
4.05471918
4.69340486
4.72160507
4.05471918
4.2186017
4.72160507
4.73764688
4.2186017
4.28466731
4.73764688
4.7423499
4.28466731
4.31050507
1
1
1
1.01727
1
1
1.01727
1.03425289
1
1
1.03425289
1.05085093
1
1
1.05085093
1.06693761
1
1
1.06693761
1.08247448
1
1
1.08247448
1.09742261
1
1
1.09742261
1.11158135
1
1
1.11158135
1.12487858
1
1
1.12487858
1.13698544
1
1
1.13698544
1.14754738
1
1
1.14754738
1.1567692
1
1
1.1567692
1.16429576
1
1
1.16429576
1.16950605
1
1
1.16950605
1.17216466
1
1
1.17216466
1.17218689
1
1
1.17218689
1.17013517
1
1
1.17013517
1.16563221
1
1
1.16563221
1.15932848
1
1
1.15932848
1.15115102
1
1
1.15115102
1.14071196
1
1
1.14071196
1.12827794
1
1
1.12827794
1.11429263
1
1
1.11429263
1.09933789
1
1
1.09933789
1.08376581
1
1
1.08376581
1.06773644
1
1
1.06773644
1.05128998
1
1
1.05128998
1.03445795
1
1
1.03445795
1.01733789
1
1
1.01733789
1
1
1
1
1.0174144
1
1
1.0174144
1.03475766
1
1
1.03475766
1.05187907
1
1
1.05187907
1.06863203
1
1
1.06863203
1.08495674
1
1
1.08495674
1.10097894
1
1
1.10097894
1.1160306
1
1
1.1160306
1.13008345
1
1
1.13008345
1.14270697
1
1
1.14270697
1.15382648
1
1
1.15382648
1.1623177
1
1
1.1623177
1.16833534
1
1
1.16833534
1.1716548
1
1
1.1716548
1.17260914
1
1
1.17260914
1.17058291
1
1
1.17058291
1.16655196
1
1
1.16655196
1.16066527
1
1
1.16066527
1.15375174
1
1
1.15375174
1.14619218
1
1
1.14619218
1.13738032
1
1
1.13738032
1.12663334
1
1
1.12663334
1.11403493
1
1
1.11403493
1.09985851
1
1
1.09985851
1.08455875
1
1
1.08455875
1.06846607
1
1
1.06846607
1.05181166
1
1
1.05181166
1.03475823
1
1
1.03475823
1.01745337
1
1
1.01745337
1
1
1
1.01733789
1.03488337
1
1
1.03488337
1.05277596
1
1
1.05277596
1.07109697
1
1
1.07109697
1.08997065
1
1
1.08997065
1.10967686
1
1
1.10967686
1.13055849
1
1
1.13055849
1.15327221
1
1
1.15327221
1.17846196
1
1
1.17846196
1.2063346
1
1
1.2063346
1.23517872
1
1
1.23517872
1.26639837
1
1
1.26639837
1.29987437
1
1
1.29987437
1.331714
1
1
1.331714
1.35428556
1
1
1.35428556
1.37432745
1
1
1.37432745
1.39962697
1
1
1.39962697
1.43173979
1
1
1.43173979
1.46014041
1
1
1.46014041
1.47158892
1
1
1.47158892
1.4725131
1
1
1.4725131
1.46873844
1
1
1.46873844
1.45965787
1
1
1.45965787
1.43409946
1
1
1.43409946
1.39730061
1
1
1.39730061
1.37796981
1
1
1.37796981
1.36515134
1
1
1.36515134
1.34471712
1
1
1.34471712
1.31565178
1
1
1.31565178
1.29192259
1
1
1.29192259
1.26861739
1
1
1.26861739
1.24291354
1
1
1.24291354
1.21320228
1
1
1.21320228
1.18433671
1
1
1.18433671
1.1583824
1
1
1.1583824
1.13448946
1
1
1.13448946
1.11250359
1
1
1.11250359
1.09180725
1
1
1.09180725
1.07218788
1
1
1.07218788
1.0533515
1
1
1.0533515
1.03514296
1
1
1.03514296
1.0174144
1
1
1.01745337
1.03536344
1
1
1.03536344
1.05386771
1
1
1.05386771
1.07316004
1
1
1.07316004
1.09327753
1
1
1.09327753
1.11411766
1
1
1.11411766
1.13627236
1
1
1.13627236
1.15896738
1
1
1.15896738
1.18253779
1
1
1.18253779
1.20730281
1
1
1.20730281
1.23281929
1
1
1.23281929
1.25978274
1
1
1.25978274
1.28729322
1
1
1.28729322
1.31359181
1
1
1.31359181
1.34343861
1
1
1.34343861
1.38593146
1
1
1.38593146
1.43624441
1
1
1.43624441
1.48379774
1
1
1.48379774
1.45632398
1
1
1.45632398
1.41698357
1
1
1.41698357
1.41449649
1
1
1.41449649
1.42707275
1
1
1.42707275
1.44022323
1
1
1.44022323
1.44640934
1
1
1.44640934
1.42991262
1
1
1.42991262
1.39789701
1
1
1.39789701
1.36679573
1
1
1.36679573
1.34307069
1
1
1.34307069
1.31767718
1
1
1.31767718
1.28775307
1
1
1.28775307
1.25673456
1
1
1.25673456
1.22745489
1
1
1.22745489
1.20059596
1
1
1.20059596
1.17552505
1
1
1.17552505
1.15220794
1
1
1.15220794
1.13032795
1
1
1.13032795
1.10961673
1
1
1.10961673
1.0898692
1
1
1.0898692
1.07092265
1
1
1.07092265
1.0526048
1
1
1.0526048
1.03475428
1
1
1.03475428
1.01727
4.31077389
4.28776908
3.9069876
3.8804381
4.28776908
4.23788798
3.8804381
3.81908415
4.23788798
4.14169096
3.81908415
3.69779643
4.14169096
3.91955924
3.69779643
3.47776639
3.98760588
3.98805406
3.43229816
3.4642461
3.98805406
3.96623418
3.4642461
3.45240333
3.96623418
3.93700814
3.45240333
3.42332514
3.93700814
3.918879
3.42332514
3.4126883
3.918879
3.917253
3.4126883
3.41960852
3.917253
3.93528072
3.41960852
3.45776559
3.89313973
4.0053498
3.39299486
3.54746947
4.0053498
4.07809755
3.54746947
3.63107671
4.07809755
4.12788507
3.63107671
3.68447138
4.12788507
4.16035673
3.68447138
3.72173976
4.16035673
4.15796791
3.72173976
3.70048262
4.15796791
4.06831284
3.70048262
3.59103709
4.2282544
4.29200335
3.79491614
3.88019155
4.29200335
4.31686072
3.88019155
3.91488414
4.31686072
4.31781961
3.91488414
3.91974229
4.31781961
4.29828845
3.91974229
3.89937798
4.29828845
4.25549581
3.89937798
3.84925904
4.25549581
4.17314594
3.84925904
3.74857172
4.17314594
3.98713011
3.74857172
3.56478223
4.0506094
4.04259502
3.55672632
3.56946656
4.04259502
4.00362886
3.56946656
3.52240938
4.00362886
3.94795541
3.52240938
3.44284949
3.94795541
3.90045112
3.44284949
3.38187291
3.90045112
3.85532163
3.38187291
3.31914823
3.85532163
3.78200249
3.31914823
3.20517933
3.78200249
3.61273805
3.20517933
2.99049484
3.85831077
3.99364399
3.33267759
3.52908344
3.99364399
4.07821487
3.52908344
3.63803358
4.07821487
4.12942149
3.63803358
3.69135695
4.12942149
4.15450229
3.69135695
3.70879475
4.15450229
4.14777514
3.70879475
3.67963032
4.14777514
4.05471918
3.67963032
3.56783108
4.2186017
4.28466731
3.78054793
3.86952954
4.28466731
4.31050507
3.86952954
3.90562938
4.31050507
4.31077389
3.90562938
3.9069876
4.05471918
4.2186017
3.6093053
3.78054793
3.56783108
4.05471918
3.33899134
3.6093053
3.61273805
3.85831077
3.02504558
3.33267759
2.99049484
3.61273805
2.61004994
3.02504558
3.98713011
4.0506094
3.46973162
3.55672632
3.56478223
3.98713011
3.2709807
3.46973162
4.06831284
4.2282544
3.6289489
3.79491614
3.59103709
4.06831284
3.36270043
3.6289489
3.71391618
3.89313973
3.04775882
3.39299486
3.91955924
3.98760588
3.34283265
3.43229816
3.47776639
3.91955924
3.13808925
3.34283265
1.0174144
1.03475766
1.03514296
1.07012202
1.03475766
1.05187907
1.07012202
1.10465531
1.05187907
1.06863203
1.10465531
1.13845905
1.06863203
1.08495674
1.13845905
1.17154814
1.08495674
1.10097894
1.17154814
1.20341248
1.10097894
1.1160306
1.20341248
1.23377523
1.1160306
1.13008345
1.23377523
1.26234373
1.13008345
1.14270697
1.26234373
1.28827863
1.14270697
1.15382648
1.28827863
1.310538
1.15382648
1.1623177
1.310538
1.32786689
1.1623177
1.16833534
1.32786689
1.33979981
1.16833534
1.1716548
1.33979981
1.34636334
1.1716548
1.17260914
1.34636334
1.34729992
1.17260914
1.17058291
1.34729992
1.3431913
1.17058291
1.16655196
1.3431913
1.33485131
1.16655196
1.16066527
1.33485131
1.32284673
1.16066527
1.15375174
1.32284673
1.3087719
1.15375174
1.14619218
1.3087719
1.2936636
1.14619218
1.13738032
1.2936636
1.27656891
1.13738032
1.12663334
1.27656891
1.25528739
1.12663334
1.11403493
1.25528739
1.23006029
1.11403493
1.09985851
1.23006029
1.20159727
1.09985851
1.08455875
1.20159727
1.17085761
1.08455875
1.06846607
1.17085761
1.1384627
1.06846607
1.05181166
1.1384627
1.1048566
1.05181166
1.03475823
1.1048566
1.07040734
1.03475823
1.01745337
1.07040734
1.03536344
1.01727
1.03425289
1.03475428
1.06892003
1.03425289
1.05085093
1.06892003
1.10227141
1.05085093
1.06693761
1.10227141
1.13464406
1.06693761
1.08247448
1.13464406
1.16589947
1.08247448
1.09742261
1.16589947
1.19590368
1.09742261
1.11158135
1.19590368
1.22440095
1.11158135
1.12487858
1.22440095
1.25111736
1.12487858
1.13698544
1.25111736
1.27540383
1.13698544
1.14754738
1.27540383
1.29684035
1.14754738
1.1567692
1.29684035
1.31548163
1.1567692
1.16429576
1.31548163
1.33085479
1.16429576
1.16950605
1.33085479
1.34156247
1.16950605
1.17216466
1.34156247
1.34695658
1.17216466
1.17218689
1.34695658
1.34711399
1.17218689
1.17013517
1.34711399
1.34259612
1.17013517
1.16563221
1.34259612
1.33385911
1.16563221
1.15932848
1.33385911
1.32128456
1.15932848
1.15115102
1.32128456
1.30458904
1.15115102
1.14071196
1.30458904
1.28357135
1.14071196
1.12827794
1.28357135
1.25817992
1.12827794
1.11429263
1.25817992
1.22968376
1.11429263
1.09933789
1.22968376
1.19952465
1.09933789
1.08376581
1.19952465
1.16830614
1.08376581
1.06773644
1.16830614
1.13615583
1.06773644
1.05128998
1.13615583
1.10313206
1.05128998
1.03445795
1.10313206
1.06934379
1.03445795
1.01733789
1.06934379
1.03488337
1.03536344
1.05386771
1.07040734
1.10726593
1.05386771
1.07316004
1.10726593
1.14567276
1.07316004
1.09327753
1.14567276
1.18567191
1.09327753
1.11411766
1.18567191
1.22757555
1.11411766
1.13627236
1.22757555
1.27127341
1.13627236
1.15896738
1.27127341
1.31672715
1.15896738
1.18253779
1.31672715
1.3644585
1.18253779
1.20730281
1.3644585
1.41386501
1.20730281
1.23281929
1.41386501
1.46496355
1.23281929
1.25978274
1.46496355
1.5192489
1.25978274
1.28729322
1.5192489
1.57498886
1.28729322
1.31359181
1.57498886
1.62511521
1.31359181
1.34343861
1.62511521
1.68158638
1.34343861
1.38593146
1.68158638
1.76518382
1.38593146
1.43624441
1.76518382
1.89051243
1.43624441
1.48379774
1.89051243
2.09723678
1.48379774
1.45632398
2.09723678
1.9194226
1.45632398
1.41698357
1.9194226
1.81515169
1.41698357
1.41449649
1.81515169
1.8216128
1.41449649
1.42707275
1.8216128
1.8560939
1.42707275
1.44022323
1.8560939
1.8866109
1.44022323
1.44640934
1.8866109
1.89702033
1.44640934
1.42991262
1.89702033
1.8777042
1.42991262
1.39789701
1.8777042
1.7903908
1.39789701
1.36679573
1.7903908
1.72748765
1.36679573
1.34307069
1.72748765
1.68334179
1.34307069
1.31767718
1.68334179
1.63487075
1.31767718
1.28775307
1.63487075
1.57152165
1.28775307
1.25673456
1.57152165
1.50847866
1.25673456
1.22745489
1.50847866
1.45028477
1.22745489
1.20059596
1.45028477
1.39692545
1.20059596
1.17552505
1.39692545
1.34758413
1.17552505
1.15220794
1.34758413
1.30145936
1.15220794
1.13032795
1.30145936
1.25818731
1.13032795
1.10961673
1.25818731
1.21727099
1.10961673
1.0898692
1.21727099
1.17818841
1.0898692
1.07092265
1.17818841
1.14063075
1.07092265
1.0526048
1.14063075
1.10428833
1.0526048
1.03475428
1.10428833
1.06892003
1.03488337
1.05277596
1.06934379
1.10486437
1.05277596
1.07109697
1.10486437
1.14122471
1.07109697
1.08997065
1.14122471
1.17874001
1.08997065
1.10967686
1.17874001
1.21767188
1.10967686
1.13055849
1.21767188
1.25897676
1.13055849
1.15327221
1.25897676
1.30415186
1.15327221
1.17846196
1.30415186
1.35466338
1.17846196
1.2063346
1.35466338
1.40895374
1.2063346
1.23517872
1.40895374
1.46636128
1.23517872
1.26639837
1.46636128
1.52891473
1.26639837
1.29987437
1.52891473
1.59876948
1.29987437
1.331714
1.59876948
1.66126944
1.331714
1.35428556
1.66126944
1.70957649
1.35428556
1.37432745
1.70957649
1.74736764
1.37432745
1.39962697
1.74736764
1.79784997
1.39962697
1.43173979
1.79784997
1.86864756
1.43173979
1.46014041
1.86864756
1.92282851
1.46014041
1.47158892
1.92282851
1.95082577
1.47158892
1.4725131
1.95082577
1.95111419
1.4725131
1.46873844
1.95111419
1.94319793
1.46873844
1.45965787
1.94319793
1.92120447
1.45965787
1.43409946
1.92120447
1.8764664
1.43409946
1.39730061
1.8764664
1.77929951
1.39730061
1.37796981
1.77929951
1.75223132
1.37796981
1.36515134
1.75223132
1.73317375
1.36515134
1.34471712
1.73317375
1.68721895
1.34471712
1.31565178
1.68721895
1.63095435
1.31565178
1.29192259
1.63095435
1.58501886
1.29192259
1.26861739
1.58501886
1.54115721
1.26861739
1.24291354
1.54115721
1.48889844
1.24291354
1.21320228
1.48889844
1.42652001
1.21320228
1.18433671
1.42652001
1.3682642
1.18433671
1.1583824
1.3682642
1.31571735
1.1583824
1.13448946
1.31571735
1.26829995
1.13448946
1.11250359
1.26829995
1.22441228
1.11250359
1.09180725
1.22441228
1.18324685
1.09180725
1.07218788
1.18324685
1.14405237
1.07218788
1.0533515
1.14405237
1.10645186
1.0533515
1.03514296
1.10645186
1.07012202
2.61004994
3.02504558
2.09723678
2.58745937
3.02504558
3.33267759
2.58745937
2.91583904
3.33267759
3.52908344
2.91583904
3.13052635
3.52908344
3.63803358
3.13052635
3.23883441
3.63803358
3.69135695
3.23883441
3.28247399
3.69135695
3.70879475
3.28247399
3.29531549
3.70879475
3.67963032
3.29531549
3.28692967
3.67963032
3.56783108
3.28692967
3.19931665
3.56783108
3.33899134
3.19931665
3.0572112
3.33899134
3.09123618
3.0572112
2.87334053
3.33899134
3.6093053
3.09123618
3.27659457
3.6093053
3.78054793
3.27659457
3.41778945
3.78054793
3.86952954
3.41778945
3.4962039
3.86952954
3.90562938
3.4962039
3.53227434
3.90562938
3.9069876
3.53227434
3.53464918
3.9069876
3.8804381
3.53464918
3.508421
3.8804381
3.81908415
3.508421
3.44896702
3.81908415
3.69779643
3.44896702
3.33581955
3.69779643
3.47776639
3.33581955
3.15927324
3.47776639
3.13808925
3.15927324
2.9122352
3.13808925
2.78698134
2.9122352
2.64009292
3.13808925
3.34283265
2.78698134
2.89493916
3.34283265
3.43229816
2.89493916
2.93620142
3.43229816
3.4642461
2.93620142
2.97520624
3.4642461
3.45240333
2.97520624
2.96240567
3.45240333
3.42332514
2.96240567
2.91747315
3.42332514
3.4126883
2.91747315
2.91300832
3.4126883
3.41960852
2.91300832
2.92432745
3.41960852
3.45776559
2.92432745
2.94989323
3.45776559
3.52305519
2.94989323
2.99346062
2.41922105
3.04775882
2.29761372
2.71653704
3.04775882
3.39299486
2.71653704
3.01915066
3.39299486
3.54746947
3.01915066
3.14667059
3.54746947
3.63107671
3.14667059
3.21332496
3.63107671
3.68447138
3.21332496
3.2714279
3.68447138
3.72173976
3.2714279
3.31784062
3.72173976
3.70048262
3.31784062
3.31023189
3.70048262
3.59103709
3.31023189
3.23107109
3.59103709
3.36270043
3.23107109
3.07563836
3.36270043
3.11634503
3.07563836
2.89734914
3.36270043
3.6289489
3.11634503
3.29842737
3.6289489
3.79491614
3.29842737
3.43388777
3.79491614
3.88019155
3.43388777
3.50882839
3.88019155
3.91488414
3.50882839
3.54404982
3.91488414
3.91974229
3.54404982
3.54974869
3.91974229
3.89937798
3.54974869
3.53058357
3.89937798
3.84925904
3.53058357
3.48436633
3.84925904
3.74857172
3.48436633
3.39825373
3.74857172
3.56478223
3.39825373
3.24474242
3.56478223
3.2709807
3.24474242
3.03939038
3.2709807
2.95614591
3.03939038
2.79989324
3.2709807
3.46973162
2.95614591
3.06788069
3.46973162
3.55672632
3.06788069
3.12820968
3.55672632
3.56946656
3.12820968
3.12939246
3.56946656
3.52240938
3.12939246
3.07584329
3.52240938
3.44284949
3.07584329
2.94932647
3.44284949
3.38187291
2.94932647
2.88308478
3.38187291
3.31914823
2.88308478
2.82167652
3.31914823
3.20517933
2.82167652
2.71669628
3.20517933
2.99049484
2.71669628
2.5491862
2.99049484
2.61004994
2.5491862
2.30475326
2.61004994
2.09723678
2.30475326
1.9194226
1.06892003
1.10227141
1.10428833
1.15474362
1.10227141
1.13464406
1.15474362
1.20369615
1.13464406
1.16589947
1.20369615
1.25095646
1.16589947
1.19590368
1.25095646
1.29628464
1.19590368
1.22440095
1.29628464
1.33945302
1.22440095
1.25111736
1.33945302
1.3800323
1.25111736
1.27540383
1.3800323
1.41695193
1.27540383
1.29684035
1.41695193
1.44938929
1.29684035
1.31548163
1.44938929
1.47780216
1.31548163
1.33085479
1.47780216
1.50201885
1.33085479
1.34156247
1.50201885
1.51875874
1.34156247
1.34695658
1.51875874
1.52702802
1.34695658
1.34711399
1.52702802
1.52718955
1.34711399
1.34259612
1.52718955
1.52032412
1.34259612
1.33385911
1.52032412
1.50690259
1.33385911
1.32128456
1.50690259
1.48746708
1.32128456
1.30458904
1.48746708
1.46218018
1.30458904
1.28357135
1.46218018
1.43038165
1.28357135
1.25817992
1.43038165
1.39095659
1.25817992
1.22968376
1.39095659
1.34726236
1.22968376
1.19952465
1.34726236
1.30141475
1.19952465
1.16830614
1.30141475
1.2541936
1.16830614
1.13615583
1.2541936
1.20570304
1.13615583
1.10313206
1.20570304
1.15589968
1.10313206
1.06934379
1.15589968
1.10486437
1.07012202
1.10465531
1.10645186
1.15886343
1.10465531
1.13845905
1.15886343
1.21026098
1.13845905