<?xml version="1.0"?>
<VTKFile type="UnstructuredGrid" version="0.1" byte_order="LittleEndian" compressor="vtkZLibDataCompressor">
  <UnstructuredGrid>
    <Piece NumberOfPoints="121" NumberOfCells="100">
      <PointData>
        <DataArray type="Float64" Name="u" format="ascii" RangeMin="0" RangeMax="1">
          0 0.06444730093 0.06444730093 0 0.13225937509 0.13225937509
          0.20651536107 0.20651536107 0.28973465919 0.28973465919 0.38363081094 0.38363081094
          0.48891704646 0.48891704646 0.60519243276 0.60519243276 0.73093644292 0.73093644292
          0.86362968195 0.86362968195 1 1 0.06444730093 0
          0.13225937509 0.20651536107 0.28973465919 0.38363081094 0.48891704646 0.60519243276
          0.73093644292 0.86362968195 1 0.06444730093 0 0.13225937509
          0.20651536107 0.28973465919 0.38363081094 0.48891704646 0.60519243276 0.73093644292
          0.86362968195 1 0.06444730093 0 0.13225937509 0.20651536107
          0.28973465919 0.38363081094 0.48891704646 0.60519243276 0.73093644292 0.86362968195
          1 0.06444730093 0 0.13225937509 0.20651536107 0.28973465919
          0.38363081094 0.48891704646 0.60519243276 0.73093644292 0.86362968195 1
          0.06444730093 0 0.13225937509 0.20651536107 0.28973465919 0.38363081094
          0.48891704646 0.60519243276 0.73093644292 0.86362968195 1 0.06444730093
          0 0.13225937509 0.20651536107 0.28973465919 0.38363081094 0.48891704646
          0.60519243276 0.73093644292 0.86362968195 1 0.06444730093 0
          0.13225937509 0.20651536107 0.28973465919 0.38363081094 0.48891704646 0.60519243276
          0.73093644292 0.86362968195 1 0.06444730093 0 0.13225937509
          0.20651536107 0.28973465919 0.38363081094 0.48891704646 0.60519243276 0.73093644292
          0.86362968195 1 0.06444730093 0 0.13225937509 0.20651536107
          0.28973465919 0.38363081094 0.48891704646 0.60519243276 0.73093644292 0.86362968195
          1
        </DataArray>
      </PointData>
      <CellData>
        <DataArray type="Int32" Name="libmesh_elem_id" format="ascii" RangeMin="0" RangeMax="99">
          0 1 2 3 4 5
          6 7 8 9 10 11
          12 13 14 15 16 17
          18 19 20 21 22 23
          24 25 26 27 28 29
          30 31 32 33 34 35
          36 37 38 39 40 41
          42 43 44 45 46 47
          48 49 50 51 52 53
          54 55 56 57 58 59
          60 61 62 63 64 65
          66 67 68 69 70 71
          72 73 74 75 76 77
          78 79 80 81 82 83
          84 85 86 87 88 89
          90 91 92 93 94 95
          96 97 98 99
        </DataArray>
        <DataArray type="Int32" Name="subdomain_id" format="ascii" RangeMin="0" RangeMax="0">
          0 0 0 0 0 0
          0 0 0 0 0 0
          0 0 0 0 0 0
          0 0 0 0 0 0
          0 0 0 0 0 0
          0 0 0 0 0 0
          0 0 0 0 0 0
          0 0 0 0 0 0
          0 0 0 0 0 0
          0 0 0 0 0 0
          0 0 0 0 0 0
          0 0 0 0 0 0
          0 0 0 0 0 0
          0 0 0 0 0 0
          0 0 0 0 0 0
          0 0 0 0 0 0
          0 0 0 0
        </DataArray>
      </CellData>
      <Points>
        <DataArray type="Float64" Name="Points" NumberOfComponents="3" format="ascii" RangeMin="0" RangeMax="1.4142135624">
          0 0 0 0.1 0 0
          0.1 0.1 0 0 0.1 0
          0.2 0 0 0.2 0.1 0
          0.3 0 0 0.3 0.1 0
          0.4 0 0 0.4 0.1 0
          0.5 0 0 0.5 0.1 0
          0.6 0 0 0.6 0.1 0
          0.7 0 0 0.7 0.1 0
          0.8 0 0 0.8 0.1 0
          0.9 0 0 0.9 0.1 0
          1 0 0 1 0.1 0
          0.1 0.2 0 0 0.2 0
          0.2 0.2 0 0.3 0.2 0
          0.4 0.2 0 0.5 0.2 0
          0.6 0.2 0 0.7 0.2 0
          0.8 0.2 0 0.9 0.2 0
          1 0.2 0 0.1 0.3 0
          0 0.3 0 0.2 0.3 0
          0.3 0.3 0 0.4 0.3 0
          0.5 0.3 0 0.6 0.3 0
          0.7 0.3 0 0.8 0.3 0
          0.9 0.3 0 1 0.3 0
          0.1 0.4 0 0 0.4 0
          0.2 0.4 0 0.3 0.4 0
          0.4 0.4 0 0.5 0.4 0
          0.6 0.4 0 0.7 0.4 0
          0.8 0.4 0 0.9 0.4 0
          1 0.4 0 0.1 0.5 0
          0 0.5 0 0.2 0.5 0
          0.3 0.5 0 0.4 0.5 0
          0.5 0.5 0 0.6 0.5 0
          0.7 0.5 0 0.8 0.5 0
          0.9 0.5 0 1 0.5 0
          0.1 0.6 0 0 0.6 0
          0.2 0.6 0 0.3 0.6 0
          0.4 0.6 0 0.5 0.6 0
          0.6 0.6 0 0.7 0.6 0
          0.8 0.6 0 0.9 0.6 0
          1 0.6 0 0.1 0.7 0
          0 0.7 0 0.2 0.7 0
          0.3 0.7 0 0.4 0.7 0
          0.5 0.7 0 0.6 0.7 0
          0.7 0.7 0 0.8 0.7 0
          0.9 0.7 0 1 0.7 0
          0.1 0.8 0 0 0.8 0
          0.2 0.8 0 0.3 0.8 0
          0.4 0.8 0 0.5 0.8 0
          0.6 0.8 0 0.7 0.8 0
          0.8 0.8 0 0.9 0.8 0
          1 0.8 0 0.1 0.9 0
          0 0.9 0 0.2 0.9 0
          0.3 0.9 0 0.4 0.9 0
          0.5 0.9 0 0.6 0.9 0
          0.7 0.9 0 0.8 0.9 0
          0.9 0.9 0 1 0.9 0
          0.1 1 0 0 1 0
          0.2 1 0 0.3 1 0
          0.4 1 0 0.5 1 0
          0.6 1 0 0.7 1 0
          0.8 1 0 0.9 1 0
          1 1 0
        </DataArray>
      </Points>
      <Cells>
        <DataArray type="Int64" Name="connectivity" format="ascii" RangeMin="0" RangeMax="120">
          0 1 2 3 1 4
          5 2 4 6 7 5
          6 8 9 7 8 10
          11 9 10 12 13 11
          12 14 15 13 14 16
          17 15 16 18 19 17
          18 20 21 19 3 2
          22 23 2 5 24 22
          5 7 25 24 7 9
          26 25 9 11 27 26
          11 13 28 27 13 15
          29 28 15 17 30 29
          17 19 31 30 19 21
          32 31 23 22 33 34
          22 24 35 33 24 25
          36 35 25 26 37 36
          26 27 38 37 27 28
          39 38 28 29 40 39
          29 30 41 40 30 31
          42 41 31 32 43 42
          34 33 44 45 33 35
          46 44 35 36 47 46
          36 37 48 47 37 38
          49 48 38 39 50 49
          39 40 51 50 40 41
          52 51 41 42 53 52
          42 43 54 53 45 44
          55 56 44 46 57 55
          46 47 58 57 47 48
          59 58 48 49 60 59
          49 50 61 60 50 51
          62 61 51 52 63 62
          52 53 64 63 53 54
          65 64 56 55 66 67
          55 57 68 66 57 58
          69 68 58 59 70 69
          59 60 71 70 60 61
          72 71 61 62 73 72
          62 63 74 73 63 64
          75 74 64 65 76 75
          67 66 77 78 66 68
          79 77 68 69 80 79
          69 70 81 80 70 71
          82 81 71 72 83 82
          72 73 84 83 73 74
          85 84 74 75 86 85
          75 76 87 86 78 77
          88 89 77 79 90 88
          79 80 91 90 80 81
          92 91 81 82 93 92
          82 83 94 93 83 84
          95 94 84 85 96 95
          85 86 97 96 86 87
          98 97 89 88 99 100
          88 90 101 99 90 91
          102 101 91 92 103 102
          92 93 104 103 93 94
          105 104 94 95 106 105
          95 96 107 106 96 97
          108 107 97 98 109 108
          100 99 110 111 99 101
          112 110 101 102 113 112
          102 103 114 113 103 104
          115 114 104 105 116 115
          105 106 117 116 106 107
          118 117 107 108 119 118
          108 109 120 119
        </DataArray>
        <DataArray type="Int64" Name="offsets" format="ascii" RangeMin="4" RangeMax="400">
          4 8 12 16 20 24
          28 32 36 40 44 48
          52 56 60 64 68 72
          76 80 84 88 92 96
          100 104 108 112 116 120
          124 128 132 136 140 144
          148 152 156 160 164 168
          172 176 180 184 188 192
          196 200 204 208 212 216
          220 224 228 232 236 240
          244 248 252 256 260 264
          268 272 276 280 284 288
          292 296 300 304 308 312
          316 320 324 328 332 336
          340 344 348 352 356 360
          364 368 372 376 380 384
          388 392 396 400
        </DataArray>
        <DataArray type="UInt8" Name="types" format="ascii" RangeMin="9" RangeMax="9">
          9 9 9 9 9 9
          9 9 9 9 9 9
          9 9 9 9 9 9
          9 9 9 9 9 9
          9 9 9 9 9 9
          9 9 9 9 9 9
          9 9 9 9 9 9
          9 9 9 9 9 9
          9 9 9 9 9 9
          9 9 9 9 9 9
          9 9 9 9 9 9
          9 9 9 9 9 9
          9 9 9 9 9 9
          9 9 9 9 9 9
          9 9 9 9 9 9
          9 9 9 9 9 9
          9 9 9 9
        </DataArray>
      </Cells>
    </Piece>
  </UnstructuredGrid>
</VTKFile>
