<VTKFile type="UnstructuredGrid" version="2.2" byte_order="LittleEndian">
<UnstructuredGrid>
<Piece NumberOfPoints="64" NumberOfCells="32">
<Points>
<DataArray type="Float64" NumberOfComponents="3" format="ascii">
0 0 0
0.03125 0 0
0.5 0 0
0.53125 0 0
0.25 0 0
0.28125 0 0
0.75 0 0
0.78125 0 0
0.125 0 0
0.15625 0 0
0.625 0 0
0.65625 0 0
0.375 0 0
0.40625 0 0
0.875 0 0
0.90625 0 0
0.0625 0 0
0.09375 0 0
0.5625 0 0
0.59375 0 0
0.3125 0 0
0.34375 0 0
0.8125 0 0
0.84375 0 0
0.1875 0 0
0.21875 0 0
0.6875 0 0
0.71875 0 0
0.4375 0 0
0.46875 0 0
0.9375 0 0
0.96875 0 0
0.03125 0 0
0.0625 0 0
0.53125 0 0
0.5625 0 0
0.28125 0 0
0.3125 0 0
0.78125 0 0
0.8125 0 0
0.15625 0 0
0.1875 0 0
0.65625 0 0
0.6875 0 0
0.40625 0 0
0.4375 0 0
0.90625 0 0
0.9375 0 0
0.09375 0 0
0.125 0 0
0.59375 0 0
0.625 0 0
0.34375 0 0
0.375 0 0
0.84375 0 0
0.875 0 0
0.21875 0 0
0.25 0 0
0.71875 0 0
0.75 0 0
0.46875 0 0
0.5 0 0
0.96875 0 0
1 0 0
</DataArray>
</Points>
<Cells>
<DataArray type="Int32" Name="connectivity" format="ascii">
0 1 
2 3 
4 5 
6 7 
8 9 
10 11 
12 13 
14 15 
16 17 
18 19 
20 21 
22 23 
24 25 
26 27 
28 29 
30 31 
32 33 
34 35 
36 37 
38 39 
40 41 
42 43 
44 45 
46 47 
48 49 
50 51 
52 53 
54 55 
56 57 
58 59 
60 61 
62 63 
</DataArray>
<DataArray type="Int32" Name="offsets" format="ascii">
2
4
6
8
10
12
14
16
18
20
22
24
26
28
30
32
34
36
38
40
42
44
46
48
50
52
54
56
58
60
62
64
</DataArray>
<DataArray type="UInt8" Name="types" format="ascii">
3
3
3
3
3
3
3
3
3
3
3
3
3
3
3
3
3
3
3
3
3
3
3
3
3
3
3
3
3
3
3
3
</DataArray>
</Cells>
<CellData Scalars="attribute">
<DataArray type="Int32" Name="attribute" format="ascii">
1
1
1
1
1
1
1
1
1
1
1
1
1
1
1
1
1
1
1
1
1
1
1
1
1
1
1
1
1
1
1
1
</DataArray>
</CellData>
<PointData >
<DataArray type="Float64" Name="concentration" NumberOfComponents="1"  format="ascii" >
1
0.96875
0.5
0.46875
0.75
0.71875
0.25
0.21875
0.875
0.84375
0.375
0.34375
0.625
0.59375
0.125
0.09375
0.9375
0.90625
0.4375
0.40625
0.6875
0.65625
0.1875
0.15625
0.8125
0.78125
0.3125
0.28125
0.5625
0.53125
0.0625
0.03125
0.96875
0.9375
0.46875
0.4375
0.71875
0.6875
0.21875
0.1875
0.84375
0.8125
0.34375
0.3125
0.59375
0.5625
0.09375
0.0625
0.90625
0.875
0.40625
0.375
0.65625
0.625
0.15625
0.125
0.78125
0.75
0.28125
0.25
0.53125
0.5
0.03125
0
</DataArray>
<DataArray type="Float64" Name="concentration_gradient" NumberOfComponents="1"  format="ascii" >
-0.03125
-0.03125
-0.03125
-0.03125
-0.03125
-0.03125
-0.03125
-0.03125
-0.03125
-0.03125
-0.03125
-0.03125
-0.03125
-0.03125
-0.03125
-0.03125
-0.03125
-0.03125
-0.03125
-0.03125
-0.03125
-0.03125
-0.03125
-0.03125
-0.03125
-0.03125
-0.03125
-0.03125
-0.03125
-0.03125
-0.03125
-0.03125
-0.03125
-0.03125
-0.03125
-0.03125
-0.03125
-0.03125
-0.03125
-0.03125
-0.03125
-0.03125
-0.03125
-0.03125
-0.03125
-0.03125
-0.03125
-0.03125
-0.03125
-0.03125
-0.03125
-0.03125
-0.03125
-0.03125
-0.03125
-0.03125
-0.03125
-0.03125
-0.03125
-0.03125
-0.03125
-0.03125
-0.03125
-0.03125
</DataArray>
</PointData>
</Piece>
</UnstructuredGrid>
</VTKFile>
