<?xml version="1.0"?>
<VTKFile type="UnstructuredGrid" version="0.1" byte_order="LittleEndian" header_type="UInt32" compressor="vtkZLibDataCompressor">
  <UnstructuredGrid>
    <Piece NumberOfPoints="41" NumberOfCells="4">
      <PointData RationalWeights="RationalWeights">
        <DataArray type="Int32" Name="libmesh_node_id" format="ascii" RangeMin="0" RangeMax="40">
          0 1 2 3 4 5
          6 7 8 9 10 11
          12 13 14 15 16 17
          18 19 20 21 22 23
          24 25 26 27 28 29
          30 31 32 33 34 35
          36 37 38 39 40
        </DataArray>
        <DataArray type="Float64" Name="RationalWeights" format="ascii" RangeMin="0.8535533905941428" RangeMax="1.000000000000019">
          1.000000000000002 0.8535533905941428 0.8535533905941567 1.000000000000002 1.000000000000005 0.8535533905941461
          0.8535533905941592 1.000000000000004 1.000000000000019 0.8535533905941581 0.8535533905941719 1.000000000000019
          1.000000000000002 0.853553390594143 0.853553390594156 1.000000000000001 1.000000000000002 0.8535533905941428
          0.8535533905941497 1.000000000000005 0.8535533905941461 0.8535533905941527 1.000000000000012 0.8535533905941521
          0.8535533905941588 0.8535533905941567 1.000000000000002 0.8535533905941592 1.000000000000004 0.8535533905941656
          1.0000000000000115 1.000000000000019 0.8535533905941581 0.853553390594165 1.000000000000002 0.853553390594143
          0.8535533905941495 0.8535533905941719 1.000000000000019 0.853553390594156 1.000000000000001
        </DataArray>
        <DataArray type="Float64" Name="u" format="ascii" RangeMin="0.47445598718343496" RangeMax="0.48603151780879367">
          0.48603151780879367 0.48576107973844235 0.47504872784287416 0.47445598718343496 0.48601958977655924 0.4857486294487372
          0.4750570768596925 0.4744689533746331 0.4855891196012813 0.48531027773763513 0.4753867178447443 0.47489867992056944
          0.4855307957818521 0.48525155364613637 0.47543616234385805 0.4749595435801812 0.48603151780879367 0.48455306103882423
          0.4804049037906583 0.4859687630127081 0.4845026921292515 0.4803965713929476 0.48580435468892025 0.4843712066686249
          0.4803756754727022 0.476166228893085 0.47445598718343496 0.4762048058286064 0.4745194276450756 0.4763062311269181
          0.47468381664760123 0.48562834741833366 0.48423076218860617 0.4803541322625197 0.4855307957818521 0.4841535162208571
          0.4803438579949972 0.47641578987894656 0.4748601800172304 0.47647876717561843 0.4749595435801812
        </DataArray>
      </PointData>
      <CellData>
        <DataArray type="Int32" Name="libmesh_elem_id" format="ascii" RangeMin="0" RangeMax="3">
          0 1 2 3
        </DataArray>
        <DataArray type="Int32" Name="subdomain_id" format="ascii" RangeMin="0" RangeMax="0">
          0 0 0 0
        </DataArray>
        <DataArray type="Int32" Name="processor_id" format="ascii" RangeMin="0" RangeMax="0">
          0 0 0 0
        </DataArray>
      </CellData>
      <Points>
        <DataArray type="Float64" Name="Points" NumberOfComponents="3" format="ascii" RangeMin="0.6000000000000002" RangeMax="1.0823922002918542">
          1 2.636779683484742e-16 0 1.000000000000008 0.414213562371661 0
          0.4142135623765831 0.9999999999979711 0 4.895771288371256e-12 1.000000000000001 0
          0.9000000000000047 2.029626466892855e-16 0 0.9000000000000105 0.3727922061344968 0
          0.3727922061389276 0.8999999999981778 0 4.406310386007009e-12 0.9000000000000048 0
          0.7000000000000188 1.318389841742348e-16 0 0.7000000000000245 0.2899494936601707 0
          0.2899494936636158 0.6999999999985987 0 3.426973982367733e-12 0.7000000000000193 0
          0.6000000000000005 1.665334536937732e-16 0 0.6000000000000043 0.2485281374229966 0
          0.24852813742595 0.5999999999987828 0 2.937539100855698e-12 0.6000000000000002 0
          1 2.636779683484742e-16 0 1.000000000000008 0.414213562371661 0
          0.7071067811882955 0.7071067811848161 0 0.9000000000000047 2.029626466892855e-16 0
          0.9000000000000105 0.3727922061344968 0 0.636396103069469 0.6363961030663373 0
          0.8000000000000118 1.6740081543176016e-16 0 0.8000000000000175 0.3313708498973338 0
          0.5656854249506446 0.565685424947861 0 0.4142135623765831 0.9999999999979711 0
          4.895771288371256e-12 1.000000000000001 0 0.3727922061389276 0.8999999999981778 0
          4.406310386007009e-12 0.9000000000000048 0 0.3313708499012717 0.7999999999983882 0
          3.916642184187371e-12 0.800000000000012 0 0.7000000000000188 1.318389841742348e-16 0
          0.7000000000000245 0.2899494936601707 0 0.49497474683182013 0.4949747468293847 0
          0.6000000000000005 1.665334536937732e-16 0 0.6000000000000043 0.2485281374229966 0
          0.42426406871297717 0.42426406871088973 0 0.2899494936636158 0.6999999999985987 0
          3.426973982367733e-12 0.7000000000000193 0 0.24852813742595 0.5999999999987828 0
          2.937539100855698e-12 0.6000000000000002 0
          <InformationKey name="L2_NORM_RANGE" location="vtkDataArray" length="2">
            <Value index="0">
              0.6
            </Value>
            <Value index="1">
              1.0823922003
            </Value>
          </InformationKey>
        </DataArray>
      </Points>
      <Cells>
        <DataArray type="Int64" Name="connectivity" format="ascii" RangeMin="16" RangeMax="40">
          16 18 24 22 17 21
          23 19 20 18 26 30
          24 25 28 29 21 27
          22 24 36 34 23 33
          35 31 32 24 30 40
          36 29 38 39 33 37
        </DataArray>
        <DataArray type="Int64" Name="offsets" format="ascii" RangeMin="9" RangeMax="36">
          9 18 27 36
        </DataArray>
        <DataArray type="UInt8" Name="types" format="ascii" RangeMin="77" RangeMax="77">
          77 77 77 77
        </DataArray>
      </Cells>
    </Piece>
  </UnstructuredGrid>
</VTKFile>
