<?xml version="1.0"?>
<VTKFile type="UnstructuredGrid" version="2.2" byte_order="LittleEndian" header_type="UInt32" compressor="vtkZLibDataCompressor">
  <UnstructuredGrid>
    <Piece NumberOfPoints="468" NumberOfCells="27">
      <PointData RationalWeights="RationalWeights">
        <DataArray type="Float64" Name="RationalWeights" format="ascii" RangeMin="1" RangeMax="1">
          1 1 1 1 1 1
          1 1 1 1 1 1
          1 1 1 1 1 1
          1 1 1 1 1 1
          1 1 1 1 1 1
          1 1 1 1 1 1
          1 1 1 1 1 1
          1 1 1 1 1 1
          1 1 1 1 1 1
          1 1 1 1 1 1
          1 1 1 1 1 1
          1 1 1 1 1 1
          1 1 1 1 1 1
          1 1 1 1 1 1
          1 1 1 1 1 1
          1 1 1 1 1 1
          1 1 1 1 1 1
          1 1 1 1 1 1
          1 1 1 1 1 1
          1 1 1 1 1 1
          1 1 1 1 1 1
          1 1 1 1 1 1
          1 1 1 1 1 1
          1 1 1 1 1 1
          1 1 1 1 1 1
          1 1 1 1 1 1
          1 1 1 1 1 1
          1 1 1 1 1 1
          1 1 1 1 1 1
          1 1 1 1 1 1
          1 1 1 1 1 1
          1 1 1 1 1 1
          1 1 1 1 1 1
          1 1 1 1 1 1
          1 1 1 1 1 1
          1 1 1 1 1 1
          1 1 1 1 1 1
          1 1 1 1 1 1
          1 1 1 1 1 1
          1 1 1 1 1 1
          1 1 1 1 1 1
          1 1 1 1 1 1
          1 1 1 1 1 1
          1 1 1 1 1 1
          1 1 1 1 1 1
          1 1 1 1 1 1
          1 1 1 1 1 1
          1 1 1 1 1 1
          1 1 1 1 1 1
          1 1 1 1 1 1
          1 1 1 1 1 1
          1 1 1 1 1 1
          1 1 1 1 1 1
          1 1 1 1 1 1
          1 1 1 1 1 1
          1 1 1 1 1 1
          1 1 1 1 1 1
          1 1 1 1 1 1
          1 1 1 1 1 1
          1 1 1 1 1 1
          1 1 1 1 1 1
          1 1 1 1 1 1
          1 1 1 1 1 1
          1 1 1 1 1 1
          1 1 1 1 1 1
          1 1 1 1 1 1
          1 1 1 1 1 1
          1 1 1 1 1 1
          1 1 1 1 1 1
          1 1 1 1 1 1
          1 1 1 1 1 1
          1 1 1 1 1 1
          1 1 1 1 1 1
          1 1 1 1 1 1
          1 1 1 1 1 1
          1 1 1 1 1 1
          1 1 1 1 1 1
          1 1 1 1 1 1
        </DataArray>
        <DataArray type="Float64" Name="u" format="ascii" RangeMin="-6.617444900424222e-24" RangeMax="0">
          0 0 0 0 0 0
          0 0 0 0 0 0
          0 0 0 0 0 0
          0 0 0 0 0 0
          0 0 0 0 0 0
          0 0 0 0 0 0
          0 0 0 0 0 0
          0 0 0 0 0 0
          0 0 0 0 0 0
          0 0 0 0 0 0
          0 0 0 0 0 0
          0 0 0 0 0 0
          0 0 0 0 0 0
          0 0 0 0 0 0
          0 0 0 0 0 0
          0 0 0 0 0 0
          0 0 0 0 0 0
          0 0 0 0 0 0
          0 0 0 0 0 0
          0 0 0 0 0 0
          0 0 0 0 0 0
          0 0 0 0 0 0
          0 0 0 0 0 0
          0 0 0 0 0 0
          0 0 0 0 0 0
          0 0 0 0 0 0
          0 0 0 0 0 0
          0 0 0 0 0 0
          0 0 0 0 0 0
          0 0 0 0 0 0
          0 0 0 0 0 0
          0 0 0 0 0 0
          0 0 0 0 0 0
          0 0 0 0 0 0
          0 0 0 0 0 0
          0 0 0 0 0 0
          0 0 0 0 0 0
          0 0 0 0 0 0
          0 0 -6.617444900424222e-24 -6.617444900424222e-24 -6.617444900424222e-24 -4.963083675318166e-24
          -4.963083675318166e-24 -4.963083675318166e-24 0 0 0 -1.6543612251060553e-24
          -1.6543612251060553e-24 -1.6543612251060553e-24 -1.2407709188295415e-24 -1.2407709188295415e-24 -1.2407709188295415e-24 0
          0 0 -6.617444900424222e-24 -6.617444900424222e-24 -4.963083675318166e-24 -4.963083675318166e-24
          0 0 -1.6543612251060553e-24 -1.6543612251060553e-24 -1.2407709188295415e-24 -1.2407709188295415e-24
          0 0 -6.617444900424222e-24 -6.617444900424222e-24 -4.963083675318166e-24 -4.963083675318166e-24
          0 0 -1.6543612251060553e-24 -1.6543612251060553e-24 -1.2407709188295415e-24 -1.2407709188295415e-24
          0 0 0 0 0 0
          0 0 0 0 0 0
          0 0 0 0 0 0
          0 0 0 0 0 0
          0 0 0 0 0 0
          0 0 0 0 0 0
          0 0 0 0 0 0
          0 0 0 0 0 0
          0 0 0 0 0 0
          0 0 0 0 0 0
          0 0 0 0 0 0
          0 0 0 0 0 0
          -6.617444900424222e-24 -6.617444900424222e-24 -6.617444900424222e-24 -6.617444900424222e-24 -6.617444900424222e-24 -6.617444900424222e-24
          -1.6543612251060553e-24 -1.6543612251060553e-24 -1.6543612251060553e-24 -1.6543612251060553e-24 -1.6543612251060553e-24 -1.6543612251060553e-24
          -6.617444900424222e-24 -6.617444900424222e-24 -6.617444900424222e-24 -6.617444900424222e-24 -1.6543612251060553e-24 -1.6543612251060553e-24
          -1.6543612251060553e-24 -1.6543612251060553e-24 -6.617444900424222e-24 -6.617444900424222e-24 -6.617444900424222e-24 -6.617444900424222e-24
          -1.6543612251060553e-24 -1.6543612251060553e-24 -1.6543612251060553e-24 -1.6543612251060553e-24 0 0
          0 0 0 0 0 0
          0 0 0 0 0 0
          0 0 0 0 0 0
          0 0 0 0 0 0
          0 0 0 0 0 0
          0 0 0 0 0 0
          0 0 0 0 0 0
          0 0 0 0 0 0
          0 0 0 0 0 0
          0 0 0 0 0 0
          0 0 0 0 0 0
          0 0 -6.617444900424222e-24 -6.617444900424222e-24 -6.617444900424222e-24 -6.617444900424222e-24
          -6.617444900424222e-24 -6.617444900424222e-24 -1.6543612251060553e-24 -1.6543612251060553e-24 -1.6543612251060553e-24 -1.6543612251060553e-24
          -1.6543612251060553e-24 -1.6543612251060553e-24 -6.617444900424222e-24 -6.617444900424222e-24 -6.617444900424222e-24 -6.617444900424222e-24
          -1.6543612251060553e-24 -1.6543612251060553e-24 -1.6543612251060553e-24 -1.6543612251060553e-24 -6.617444900424222e-24 -6.617444900424222e-24
          -6.617444900424222e-24 -6.617444900424222e-24 -1.6543612251060553e-24 -1.6543612251060553e-24 -1.6543612251060553e-24 -1.6543612251060553e-24
        </DataArray>
      </PointData>
      <CellData>
        <DataArray type="Int32" Name="libmesh_elem_id" format="ascii" RangeMin="0" RangeMax="26">
          0 1 2 3 4 5
          6 7 8 9 10 11
          12 13 14 15 16 17
          18 19 20 21 22 23
          24 25 26
        </DataArray>
        <DataArray type="Int32" Name="subdomain_id" format="ascii" RangeMin="0" RangeMax="0">
          0 0 0 0 0 0
          0 0 0 0 0 0
          0 0 0 0 0 0
          0 0 0 0 0 0
          0 0 0
        </DataArray>
        <DataArray type="Int32" Name="processor_id" format="ascii" RangeMin="0" RangeMax="0">
          0 0 0 0 0 0
          0 0 0 0 0 0
          0 0 0 0 0 0
          0 0 0 0 0 0
          0 0 0
        </DataArray>
      </CellData>
      <Points>
        <DataArray type="Float64" Name="Points" NumberOfComponents="3" format="ascii" RangeMin="1.8749888791243844e-16" RangeMax="0.8660254037844393">
          0.5 -3.949095962896056e-18 0.5 0.4999999999999999 -0.3333333333333333 0.4999999999999999
          0.5 -0.5000000000000001 0.5000000000000001 0.3333333333333333 -0.3333333333333335 0.5000000000000001
          0.3333333333333332 3.312156130898176e-17 0.4999999999999999 6.899106411260389e-17 -0.3333333333333333 0.4999999999999999
          -5.679822268682938e-17 -3.143149695928208e-17 0.5 -1.150320682684339e-17 -0.5 0.5
          0.3333333333333333 -0.5000000000000001 0.5000000000000001 0.5000000000000001 0.3333333333333333 0.5000000000000001
          0.5000000000000001 0.5000000000000001 0.5000000000000003 -0.3333333333333335 -0.3333333333333334 0.4999999999999999
          -0.3333333333333331 -2.412383326054665e-17 0.4999999999999999 -0.5 1.789800316914429e-17 0.5
          -0.4999999999999999 -0.3333333333333333 0.4999999999999999 -0.3333333333333333 -0.4999999999999999 0.4999999999999999
          -0.5 -0.5 0.5 0.3333333333333332 0.3333333333333335 0.4999999999999999
          3.121609855481645e-17 0.3333333333333334 0.4999999999999998 2.545211403309162e-17 0.5 0.5
          0.3333333333333334 0.5000000000000001 0.5000000000000001 -0.3333333333333335 0.3333333333333332 0.5000000000000001
          -0.5000000000000001 0.3333333333333334 0.5000000000000001 -0.3333333333333333 0.4999999999999999 0.4999999999999999
          -0.5000000000000001 0.5 0.5000000000000001 0.4999999999999999 -2.443152495888762e-17 0.3333333333333333
          0.4999999999999999 -0.3333333333333333 0.3333333333333335 0.4999999999999999 -0.4999999999999999 0.3333333333333333
          0.3333333333333331 -0.333333333333333 0.3333333333333333 0.3333333333333333 -9.420281787453338e-17 0.3333333333333334
          1.203803073266247e-16 -0.3333333333333335 0.3333333333333336 7.787567852242794e-17 9.753886348003072e-17 0.3333333333333333
          4.602569177020522e-17 -0.4999999999999999 0.3333333333333332 0.3333333333333334 -0.5000000000000001 0.3333333333333335
          0.5000000000000001 0.3333333333333332 0.3333333333333333 0.4999999999999999 0.4999999999999999 0.3333333333333333
          -0.333333333333333 -0.3333333333333331 0.3333333333333333 -0.3333333333333336 -1.364726048949936e-16 0.3333333333333335
          -0.4999999999999999 -2.760516273169071e-17 0.3333333333333332 -0.4999999999999999 -0.3333333333333333 0.3333333333333335
          -0.3333333333333334 -0.4999999999999999 0.3333333333333334 -0.4999999999999999 -0.4999999999999999 0.3333333333333333
          0.333333333333333 0.3333333333333333 0.3333333333333335 1.108369368174861e-18 0.3333333333333331 0.3333333333333336
          2.901802688210264e-17 0.4999999999999999 0.3333333333333332 0.3333333333333335 0.5000000000000001 0.3333333333333335
          -0.3333333333333333 0.3333333333333331 0.333333333333333 -0.5000000000000001 0.3333333333333333 0.3333333333333333
          -0.3333333333333333 0.4999999999999999 0.3333333333333334 -0.4999999999999999 0.4999999999999999 0.3333333333333333
          0.5 4.699450830015808e-17 -8.783569138173858e-17 0.5 -0.3333333333333333 7.47901486235419e-17
          0.5 -0.5 3.949095962896056e-18 0.3333333333333333 -0.3333333333333334 -1.497223523949106e-17
          0.333333333333333 1.070738219555506e-16 6.623330751284759e-17 5.185194642536236e-17 -0.3333333333333333 -1.591552099353152e-16
          -3.867542083940303e-17 -1.635817252513504e-16 8.307264263936668e-17 -5.787243846742323e-17 -0.5 4.739814292705569e-17
          0.3333333333333333 -0.4999999999999998 -7.904527836644466e-17 0.4999999999999998 0.3333333333333332 2.744993878568362e-19
          0.5 0.5 3.949095962896056e-18 -0.3333333333333333 -0.3333333333333334 -8.259835360928154e-17
          -0.3333333333333332 4.998466436388624e-17 -9.926458675655518e-17 -0.5 3.994633713788158e-17 3.057896642237161e-17
          -0.4999999999999999 -0.3333333333333333 -8.411410825334914e-17 -0.3333333333333332 -0.4999999999999999 -2.495511569177877e-17
          -0.5 -0.5 3.949095962896056e-18 0.3333333333333334 0.3333333333333333 -6.670648895207473e-17
          -4.165123403818348e-17 0.3333333333333332 -1.176003310644543e-16 -1.800445334685367e-18 0.5 2.966960366272544e-17
          0.3333333333333331 0.4999999999999998 -2.983887551042459e-17 -0.3333333333333335 0.3333333333333329 7.778854537859468e-17
          -0.4999999999999998 0.3333333333333332 6.93841175433555e-20 -0.3333333333333333 0.4999999999999999 -3.597021211809117e-17
          -0.5 0.5 3.949095962896062e-18 0.4999999999999999 -7.341091509223044e-17 -0.3333333333333331
          0.5000000000000002 -0.3333333333333334 -0.3333333333333335 0.5000000000000001 -0.5000000000000001 -0.3333333333333333
          0.333333333333333 -0.3333333333333333 -0.3333333333333331 0.333333333333333 1.493818577140063e-16 -0.3333333333333335
          1.592049694754257e-16 -0.3333333333333334 -0.333333333333333 2.824062055218118e-17 2.747800573408047e-17 -0.3333333333333331
          4.903447830336181e-17 -0.4999999999999998 -0.3333333333333335 0.3333333333333333 -0.4999999999999999 -0.3333333333333334
          0.4999999999999999 0.3333333333333334 -0.3333333333333335 0.5000000000000001 0.5000000000000001 -0.3333333333333333
          -0.3333333333333331 -0.3333333333333331 -0.3333333333333329 -0.3333333333333333 -9.66265765202335e-17 -0.3333333333333331
          -0.4999999999999999 4.812182508891826e-17 -0.3333333333333335 -0.5000000000000002 -0.3333333333333335 -0.3333333333333333
          -0.3333333333333333 -0.5000000000000002 -0.3333333333333331 -0.5000000000000001 -0.5000000000000001 -0.3333333333333333
          0.3333333333333333 0.3333333333333332 -0.3333333333333333 -6.36810823398292e-17 0.3333333333333334 -0.3333333333333331
          6.965062455673025e-18 0.4999999999999998 -0.3333333333333334 0.3333333333333334 0.4999999999999999 -0.3333333333333331
          -0.3333333333333334 0.3333333333333331 -0.3333333333333334 -0.4999999999999999 0.3333333333333333 -0.3333333333333333
          -0.3333333333333332 0.5000000000000002 -0.3333333333333334 -0.5000000000000001 0.5000000000000001 -0.3333333333333333
          0.5 1.789800316914429e-17 -0.5 0.4999999999999999 -0.3333333333333333 -0.4999999999999999
          0.5000000000000001 -0.5000000000000001 -0.5000000000000001 0.3333333333333333 -0.3333333333333333 -0.5000000000000001
          0.3333333333333334 -1.187251782500723e-17 -0.4999999999999999 7.653346319971143e-17 -0.3333333333333333 -0.4999999999999999
          -2.557859853603853e-17 4.113215649984283e-17 -0.5 2.545211403309162e-17 -0.5 -0.5
          0.3333333333333334 -0.5000000000000001 -0.5000000000000001 0.5000000000000001 0.3333333333333334 -0.5000000000000001
          0.5000000000000003 0.5000000000000003 -0.5000000000000003 -0.3333333333333333 -0.3333333333333333 -0.4999999999999999
          -0.3333333333333331 -1.094795485275076e-16 -0.4999999999999999 -0.5 -3.949095962896056e-18 -0.5
          -0.4999999999999999 -0.3333333333333333 -0.4999999999999999 -0.3333333333333333 -0.4999999999999999 -0.4999999999999999
          -0.5000000000000001 -0.5000000000000001 -0.5 0.3333333333333334 0.3333333333333335 -0.4999999999999999
          6.422285379246691e-17 0.3333333333333332 -0.4999999999999998 -1.150320682684338e-17 0.5 -0.5
          0.3333333333333333 0.5000000000000001 -0.5000000000000001 -0.3333333333333335 0.3333333333333332 -0.5000000000000001
          -0.5000000000000001 0.3333333333333333 -0.5000000000000001 -0.3333333333333333 0.4999999999999999 -0.4999999999999999
          -0.5000000000000002 0.5000000000000001 -0.5000000000000001 -0.16666666666666663 0.4999999999999999 0.16666666666666666
          -0.1666666666666667 0.33333333333333304 0.16666666666666663 -0.16666666666666669 0.16666666666666652 0.16666666666666666
          -0.16666666666666663 0.4999999999999999 0.3333333333333333 -0.16666666666666666 0.3333333333333331 0.33333333333333326
          -0.1666666666666667 0.16666666666666652 0.33333333333333337 -0.16666666666666666 0.49999999999999994 0.49999999999999994
          -0.1666666666666667 0.3333333333333333 0.49999999999999994 -0.16666666666666663 0.16666666666666663 0.4999999999999999
          -0.3333333333333333 0.4999999999999999 0.16666666666666669 -0.33333333333333337 0.33333333333333304 0.16666666666666652
          -0.3333333333333334 0.1666666666666665 0.16666666666666663 -0.3333333333333333 0.4999999999999999 0.3333333333333334
          -0.3333333333333333 0.3333333333333331 0.333333333333333 -0.3333333333333335 0.1666666666666665 0.33333333333333326
          -0.3333333333333333 0.4999999999999999 0.4999999999999999 -0.3333333333333335 0.3333333333333332 0.5000000000000001
          -0.33333333333333326 0.1666666666666666 0.5 -0.49999999999999994 0.49999999999999994 0.16666666666666666
          -0.49999999999999994 0.33333333333333326 0.16666666666666666 -0.49999999999999994 0.16666666666666663 0.16666666666666663
          -0.4999999999999999 0.4999999999999999 0.3333333333333333 -0.5000000000000001 0.3333333333333333 0.3333333333333333
          -0.5 0.16666666666666666 0.33333333333333326 -0.5000000000000001 0.5 0.5000000000000001
          -0.5000000000000001 0.3333333333333334 0.5000000000000001 -0.5 0.1666666666666667 0.5
          -0.16666666666666669 -3.8132700575606754e-17 0.16666666666666669 -0.1666666666666666 -0.1666666666666667 0.16666666666666669
          -0.16666666666666677 -1.9466870707481436e-17 0.33333333333333337 -0.16666666666666657 -0.16666666666666666 0.3333333333333334
          -0.16666666666666657 -2.777766510991436e-17 0.49999999999999994 -0.16666666666666663 -0.16666666666666669 0.4999999999999999
          -0.33333333333333337 -4.3243970265553675e-17 0.16666666666666669 -0.33333333333333326 -0.16666666666666666 0.16666666666666663
          -0.3333333333333336 -1.364726048949936e-16 0.3333333333333335 -0.33333333333333326 -0.1666666666666666 0.33333333333333337
          -0.3333333333333331 -2.412383326054665e-17 0.4999999999999999 -0.33333333333333326 -0.1666666666666667 0.4999999999999999
          -0.49999999999999994 6.170587203095436e-18 0.16666666666666663 -0.4999999999999999 -0.16666666666666663 0.16666666666666666
          -0.4999999999999999 -2.760516273169071e-17 0.3333333333333332 -0.4999999999999999 -0.16666666666666666 0.33333333333333337
          -0.5 1.789800316914429e-17 0.5 -0.49999999999999994 -0.16666666666666666 0.49999999999999994
          -0.16666666666666652 -0.3333333333333333 0.16666666666666669 -0.16666666666666666 -0.4999999999999999 0.16666666666666666
          -0.16666666666666644 -0.33333333333333326 0.3333333333333335 -0.16666666666666669 -0.4999999999999999 0.3333333333333333
          -0.1666666666666667 -0.33333333333333337 0.4999999999999999 -0.16666666666666666 -0.49999999999999994 0.49999999999999994
          -0.33333333333333315 -0.33333333333333326 0.16666666666666663 -0.3333333333333333 -0.4999999999999999 0.1666666666666667
          -0.333333333333333 -0.3333333333333331 0.3333333333333333 -0.3333333333333334 -0.4999999999999999 0.3333333333333334
          -0.3333333333333335 -0.3333333333333334 0.4999999999999999 -0.3333333333333333 -0.4999999999999999 0.4999999999999999
          -0.4999999999999999 -0.3333333333333333 0.16666666666666669 -0.49999999999999994 -0.49999999999999994 0.16666666666666666
          -0.4999999999999999 -0.3333333333333333 0.3333333333333335 -0.4999999999999999 -0.4999999999999999 0.3333333333333333
          -0.4999999999999999 -0.3333333333333333 0.4999999999999999 -0.5 -0.5 0.5
          0.16666666666666666 0.49999999999999994 0.16666666666666669 0.1666666666666666 0.33333333333333326 0.1666666666666667
          0.1666666666666666 0.16666666666666663 0.1666666666666667 0.16666666666666677 0.5 0.33333333333333337
          0.1666666666666665 0.3333333333333332 0.33333333333333354 0.16666666666666657 0.1666666666666666 0.3333333333333335
          0.1666666666666667 0.5 0.5 0.16666666666666663 0.3333333333333335 0.49999999999999983
          0.16666666666666657 0.16666666666666674 0.4999999999999999 1.3608790773708636e-17 0.49999999999999994 0.16666666666666663
          -2.027143233500431e-17 0.33333333333333315 0.16666666666666674 -3.356517467459277e-19 0.16666666666666657 0.16666666666666674
          2.901802688210264e-17 0.4999999999999999 0.3333333333333332 1.108369368174861e-18 0.3333333333333331 0.3333333333333336
          3.94920239453014e-17 0.1666666666666666 0.3333333333333335 2.545211403309162e-17 0.5 0.5
          3.121609855481645e-17 0.3333333333333334 0.4999999999999998 -1.2791062066006466e-17 0.16666666666666669 0.4999999999999999
          0.16666666666666657 -1.3292964422575618e-17 0.16666666666666674 0.16666666666666663 -0.16666666666666666 0.16666666666666669
          0.16666666666666669 1.6680228027486712e-18 0.33333333333333337 0.16666666666666666 -0.1666666666666666 0.3333333333333334
          0.16666666666666657 8.450321748498405e-19 0.49999999999999994 0.16666666666666663 -0.16666666666666669 0.5
          1.9600128841512452e-17 -3.3021430885659845e-17 0.16666666666666669 5.285812785875299e-17 -0.1666666666666667 0.16666666666666674
          7.787567852242794e-17 9.753886348003072e-17 0.3333333333333333 9.912799292452632e-17 -0.16666666666666669 0.3333333333333335
          -5.679822268682938e-17 -3.143149695928208e-17 0.5 6.0964207128872526e-18 -0.16666666666666669 0.49999999999999994
          0.16666666666666663 -0.3333333333333333 0.1666666666666667 0.16666666666666669 -0.49999999999999994 0.16666666666666666
          0.1666666666666666 -0.33333333333333326 0.3333333333333335 0.16666666666666674 -0.5 0.33333333333333337
          0.16666666666666669 -0.33333333333333337 0.5 0.16666666666666666 -0.5 0.5
          8.611612687599354e-17 -0.33333333333333337 0.1666666666666667 -5.9233733486090044e-18 -0.49999999999999994 0.16666666666666663
          1.203803073266247e-16 -0.3333333333333335 0.3333333333333336 4.602569177020522e-17 -0.4999999999999999 0.3333333333333332
          6.899106411260389e-17 -0.3333333333333333 0.4999999999999999 -1.150320682684339e-17 -0.5 0.5
          0.49999999999999994 0.49999999999999994 0.16666666666666666 0.49999999999999994 0.3333333333333332 0.16666666666666666
          0.49999999999999994 0.16666666666666663 0.16666666666666663 0.4999999999999999 0.4999999999999999 0.3333333333333333
          0.5000000000000001 0.3333333333333332 0.3333333333333333 0.5 0.1666666666666666 0.3333333333333333
          0.5000000000000001 0.5000000000000001 0.5000000000000003 0.5000000000000001 0.3333333333333333 0.5000000000000001
          0.5 0.16666666666666666 0.5 0.33333333333333326 0.49999999999999994 0.1666666666666667
          0.3333333333333332 0.3333333333333333 0.1666666666666667 0.3333333333333332 0.16666666666666666 0.16666666666666674
          0.3333333333333335 0.5000000000000001 0.3333333333333335 0.333333333333333 0.3333333333333333 0.3333333333333335
          0.33333333333333315 0.1666666666666666 0.3333333333333335 0.3333333333333334 0.5000000000000001 0.5000000000000001
          0.3333333333333332 0.3333333333333335 0.4999999999999999 0.3333333333333332 0.16666666666666677 0.4999999999999999
          0.49999999999999994 1.128149167063523e-17 0.1666666666666666 0.49999999999999994 -0.16666666666666663 0.16666666666666669
          0.4999999999999999 -2.443152495888762e-17 0.3333333333333333 0.4999999999999999 -0.16666666666666666 0.33333333333333337
          0.5 -3.949095962896056e-18 0.5 0.49999999999999994 -0.16666666666666666 0.49999999999999994
          0.33333333333333315 6.43550204050861e-18 0.16666666666666674 0.3333333333333332 -0.1666666666666666 0.1666666666666667
          0.3333333333333333 -9.420281787453338e-17 0.3333333333333334 0.3333333333333332 -0.16666666666666655 0.33333333333333337
          0.3333333333333332 3.312156130898176e-17 0.4999999999999999 0.33333333333333326 -0.1666666666666667 0.5
          0.49999999999999994 -0.3333333333333333 0.16666666666666677 0.49999999999999994 -0.49999999999999994 0.16666666666666666
          0.4999999999999999 -0.3333333333333333 0.3333333333333335 0.4999999999999999 -0.4999999999999999 0.3333333333333333
          0.4999999999999999 -0.3333333333333333 0.4999999999999999 0.5 -0.5000000000000001 0.5000000000000001
          0.3333333333333332 -0.3333333333333332 0.16666666666666666 0.33333333333333337 -0.49999999999999994 0.1666666666666667
          0.3333333333333331 -0.333333333333333 0.3333333333333333 0.3333333333333334 -0.5000000000000001 0.3333333333333335
          0.3333333333333333 -0.3333333333333335 0.5000000000000001 0.3333333333333333 -0.5000000000000001 0.5000000000000001
          -0.16666666666666663 0.49999999999999994 -0.1666666666666667 -0.16666666666666674 0.33333333333333315 -0.16666666666666663
          -0.16666666666666669 0.16666666666666655 -0.1666666666666666 -0.16666666666666666 0.49999999999999994 -3.1503042276828638e-18
          -0.16666666666666677 0.33333333333333304 -1.9905892842929816e-17 -0.16666666666666669 0.16666666666666652 -1.400093245076203e-17
          -0.33333333333333326 0.5 -0.16666666666666674 -0.3333333333333335 0.33333333333333304 -0.16666666666666669
          -0.33333333333333337 0.1666666666666665 -0.16666666666666663 -0.3333333333333333 0.4999999999999999 -3.597021211809117e-17
          -0.3333333333333335 0.3333333333333329 7.778854537859468e-17 -0.33333333333333337 0.1666666666666665 -1.0738020688980251e-17
          -0.5 0.5 -0.16666666666666666 -0.49999999999999983 0.33333333333333326 -0.16666666666666666
          -0.4999999999999999 0.16666666666666666 -0.16666666666666669 -0.5 0.5 3.949095962896062e-18
          -0.4999999999999998 0.3333333333333332 6.93841175433555e-20 -0.4999999999999999 0.16666666666666663 1.5324175269957482e-17
          -0.16666666666666663 -4.56864079184043e-17 -0.16666666666666655 -0.1666666666666666 -0.16666666666666669 -0.16666666666666655
          -0.16666666666666663 -5.679853044373209e-17 -8.095972058594251e-18 -0.16666666666666663 -0.16666666666666674 -6.448637691544632e-17
          -0.33333333333333326 -2.332095607817363e-17 -0.1666666666666666 -0.3333333333333332 -0.16666666666666666 -0.16666666666666655
          -0.3333333333333332 4.998466436388624e-17 -9.926458675655518e-17 -0.33333333333333326 -0.16666666666666669 -9.093147018291837e-17
          -0.49999999999999994 4.4034081113399924e-17 -0.1666666666666667 -0.5 -0.16666666666666669 -0.1666666666666667
          -0.5 3.994633713788158e-17 3.057896642237161e-17 -0.49999999999999994 -0.16666666666666663 -2.6767570915488764e-17
          -0.16666666666666655 -0.3333333333333333 -0.16666666666666652 -0.16666666666666663 -0.49999999999999994 -0.16666666666666663
          -0.16666666666666663 -0.33333333333333337 -1.2087678177229839e-16 -0.16666666666666663 -0.49999999999999994 1.122151361763846e-17
          -0.3333333333333332 -0.33333333333333326 -0.1666666666666665 -0.33333333333333326 -0.5 -0.16666666666666655
          -0.3333333333333333 -0.3333333333333334 -8.259835360928154e-17 -0.3333333333333332 -0.4999999999999999 -2.495511569177877e-17
          -0.5 -0.33333333333333337 -0.1666666666666667 -0.5 -0.5 -0.16666666666666666
          -0.4999999999999999 -0.3333333333333333 -8.411410825334914e-17 -0.5 -0.5 3.949095962896056e-18
          0.16666666666666663 0.4999999999999999 -0.16666666666666663 0.16666666666666666 0.3333333333333333 -0.16666666666666663
          0.16666666666666657 0.16666666666666666 -0.16666666666666663 0.16666666666666655 0.4999999999999999 -8.463592384957555e-20
          0.16666666666666669 0.33333333333333326 -9.215341000826452e-17 0.16666666666666657 0.16666666666666663 -8.750217466078696e-18
          2.5823085604938288e-18 0.4999999999999999 -0.16666666666666669 -5.266615818900634e-17 0.3333333333333333 -0.1666666666666666
          -2.894177916630863e-17 0.16666666666666663 -0.16666666666666657 -1.800445334685367e-18 0.5 2.966960366272544e-17
          -4.165123403818348e-17 0.3333333333333332 -1.176003310644543e-16 -4.0163327438793257e-17 0.16666666666666652 -1.7263844212543816e-17
          0.16666666666666646 3.008799003807174e-17 -0.1666666666666666 0.16666666666666657 -0.16666666666666666 -0.16666666666666657
          0.16666666666666646 -2.8253951647899906e-17 7.465297507610713e-17 0.16666666666666657 -0.16666666666666669 -6.205373755648002e-18
          -5.217400143610927e-18 -6.805185975863497e-17 -0.16666666666666652 5.015552890339155e-17 -0.16666666666666674 -0.16666666666666652
          -3.867542083940303e-17 -1.635817252513504e-16 8.307264263936668e-17 6.588262792979663e-18 -0.16666666666666674 -3.8041283647974266e-17
          0.1666666666666666 -0.33333333333333337 -0.16666666666666657 0.16666666666666666 -0.4999999999999999 -0.16666666666666674
          0.16666666666666669 -0.33333333333333337 -8.706372258740314e-17 0.16666666666666663 -0.4999999999999999 -1.5823567719694483e-17
          1.0552845795039404e-16 -0.33333333333333337 -0.16666666666666657 -4.41898008203071e-18 -0.4999999999999999 -0.1666666666666667
          5.185194642536236e-17 -0.3333333333333333 -1.591552099353152e-16 -5.787243846742323e-17 -0.5 4.739814292705569e-17
          0.5 0.5 -0.16666666666666666 0.49999999999999983 0.3333333333333333 -0.16666666666666674
          0.4999999999999999 0.16666666666666666 -0.16666666666666669 0.5 0.5 3.949095962896056e-18
          0.4999999999999998 0.3333333333333332 2.744993878568362e-19 0.4999999999999999 0.16666666666666663 -4.378059599694087e-17
          0.33333333333333326 0.49999999999999983 -0.16666666666666657 0.33333333333333337 0.33333333333333326 -0.16666666666666669
          0.33333333333333315 0.16666666666666669 -0.16666666666666669 0.3333333333333331 0.4999999999999998 -2.983887551042459e-17
          0.3333333333333334 0.3333333333333333 -6.670648895207473e-17 0.3333333333333332 0.1666666666666667 -2.3659071961356967e-19
          0.49999999999999994 -1.320820339603618e-17 -0.1666666666666666 0.5 -0.16666666666666669 -0.16666666666666663
          0.5 4.699450830015808e-17 -8.783569138173858e-17 0.5 -0.16666666666666663 -6.522771379098338e-18
          0.333333333333333 1.2822783983477844e-16 -0.1666666666666667 0.3333333333333331 -0.16666666666666663 -0.16666666666666663
          0.333333333333333 1.070738219555506e-16 6.623330751284759e-17 0.33333333333333315 -0.16666666666666666 2.5630536136678263e-17
          0.5000000000000001 -0.33333333333333337 -0.1666666666666667 0.5 -0.5 -0.16666666666666666
          0.5 -0.3333333333333333 7.47901486235419e-17 0.5 -0.5 3.949095962896056e-18
          0.33333333333333315 -0.33333333333333337 -0.16666666666666655 0.3333333333333333 -0.49999999999999983 -0.16666666666666674
          0.3333333333333333 -0.3333333333333334 -1.497223523949106e-17 0.3333333333333333 -0.4999999999999998 -7.904527836644466e-17
          -0.16666666666666666 0.49999999999999994 -0.49999999999999994 -0.1666666666666667 0.3333333333333332 -0.49999999999999994
          -0.16666666666666663 0.16666666666666657 -0.4999999999999999 -0.1666666666666666 0.5 -0.3333333333333334
          -0.16666666666666674 0.33333333333333326 -0.33333333333333326 -0.16666666666666669 0.16666666666666663 -0.3333333333333332