<VTKFile type="UnstructuredGrid" version="2.2" byte_order="LittleEndian">
<UnstructuredGrid>
<Piece NumberOfPoints="400" NumberOfCells="100">
<Points>
<DataArray type="Float64" NumberOfComponents="3" format="ascii">
0 0 0
0.1 0 0
0 0.1 0
0.1 0.1 0
0.1 0 0
0.2 0 0
0.1 0.1 0
0.2 0.1 0
0.2 0 0
0.3 0 0
0.2 0.1 0
0.3 0.1 0
0.3 0 0
0.4 0 0
0.3 0.1 0
0.4 0.1 0
0.4 0 0
0.5 0 0
0.4 0.1 0
0.5 0.1 0
0.5 0 0
0.6 0 0
0.5 0.1 0
0.6 0.1 0
0.6 0 0
0.7 0 0
0.6 0.1 0
0.7 0.1 0
0.7 0 0
0.8 0 0
0.7 0.1 0
0.8 0.1 0
0.8 0 0
0.9 0 0
0.8 0.1 0
0.9 0.1 0
0.9 0 0
1 0 0
0.9 0.1 0
1 0.1 0
0 0.1 0
0.1 0.1 0
0 0.2 0
0.1 0.2 0
0.1 0.1 0
0.2 0.1 0
0.1 0.2 0
0.2 0.2 0
0.2 0.1 0
0.3 0.1 0
0.2 0.2 0
0.3 0.2 0
0.3 0.1 0
0.4 0.1 0
0.3 0.2 0
0.4 0.2 0
0.4 0.1 0
0.5 0.1 0
0.4 0.2 0
0.5 0.2 0
0.5 0.1 0
0.6 0.1 0
0.5 0.2 0
0.6 0.2 0
0.6 0.1 0
0.7 0.1 0
0.6 0.2 0
0.7 0.2 0
0.7 0.1 0
0.8 0.1 0
0.7 0.2 0
0.8 0.2 0
0.8 0.1 0
0.9 0.1 0
0.8 0.2 0
0.9 0.2 0
0.9 0.1 0
1 0.1 0
0.9 0.2 0
1 0.2 0
0 0.2 0
0.1 0.2 0
0 0.3 0
0.1 0.3 0
0.1 0.2 0
0.2 0.2 0
0.1 0.3 0
0.2 0.3 0
0.2 0.2 0
0.3 0.2 0
0.2 0.3 0
0.3 0.3 0
0.3 0.2 0
0.4 0.2 0
0.3 0.3 0
0.4 0.3 0
0.4 0.2 0
0.5 0.2 0
0.4 0.3 0
0.5 0.3 0
0.5 0.2 0
0.6 0.2 0
0.5 0.3 0
0.6 0.3 0
0.6 0.2 0
0.7 0.2 0
0.6 0.3 0
0.7 0.3 0
0.7 0.2 0
0.8 0.2 0
0.7 0.3 0
0.8 0.3 0
0.8 0.2 0
0.9 0.2 0
0.8 0.3 0
0.9 0.3 0
0.9 0.2 0
1 0.2 0
0.9 0.3 0
1 0.3 0
0 0.3 0
0.1 0.3 0
0 0.4 0
0.1 0.4 0
0.1 0.3 0
0.2 0.3 0
0.1 0.4 0
0.2 0.4 0
0.2 0.3 0
0.3 0.3 0
0.2 0.4 0
0.3 0.4 0
0.3 0.3 0
0.4 0.3 0
0.3 0.4 0
0.4 0.4 0
0.4 0.3 0
0.5 0.3 0
0.4 0.4 0
0.5 0.4 0
0.5 0.3 0
0.6 0.3 0
0.5 0.4 0
0.6 0.4 0
0.6 0.3 0
0.7 0.3 0
0.6 0.4 0
0.7 0.4 0
0.7 0.3 0
0.8 0.3 0
0.7 0.4 0
0.8 0.4 0
0.8 0.3 0
0.9 0.3 0
0.8 0.4 0
0.9 0.4 0
0.9 0.3 0
1 0.3 0
0.9 0.4 0
1 0.4 0
0 0.4 0
0.1 0.4 0
0 0.5 0
0.1 0.5 0
0.1 0.4 0
0.2 0.4 0
0.1 0.5 0
0.2 0.5 0
0.2 0.4 0
0.3 0.4 0
0.2 0.5 0
0.3 0.5 0
0.3 0.4 0
0.4 0.4 0
0.3 0.5 0
0.4 0.5 0
0.4 0.4 0
0.5 0.4 0
0.4 0.5 0
0.5 0.5 0
0.5 0.4 0
0.6 0.4 0
0.5 0.5 0
0.6 0.5 0
0.6 0.4 0
0.7 0.4 0
0.6 0.5 0
0.7 0.5 0
0.7 0.4 0
0.8 0.4 0
0.7 0.5 0
0.8 0.5 0
0.8 0.4 0
0.9 0.4 0
0.8 0.5 0
0.9 0.5 0
0.9 0.4 0
1 0.4 0
0.9 0.5 0
1 0.5 0
0 0.5 0
0.1 0.5 0
0 0.6 0
0.1 0.6 0
0.1 0.5 0
0.2 0.5 0
0.1 0.6 0
0.2 0.6 0
0.2 0.5 0
0.3 0.5 0
0.2 0.6 0
0.3 0.6 0
0.3 0.5 0
0.4 0.5 0
0.3 0.6 0
0.4 0.6 0
0.4 0.5 0
0.5 0.5 0
0.4 0.6 0
0.5 0.6 0
0.5 0.5 0
0.6 0.5 0
0.5 0.6 0
0.6 0.6 0
0.6 0.5 0
0.7 0.5 0
0.6 0.6 0
0.7 0.6 0
0.7 0.5 0
0.8 0.5 0
0.7 0.6 0
0.8 0.6 0
0.8 0.5 0
0.9 0.5 0
0.8 0.6 0
0.9 0.6 0
0.9 0.5 0
1 0.5 0
0.9 0.6 0
1 0.6 0
0 0.6 0
0.1 0.6 0
0 0.7 0
0.1 0.7 0
0.1 0.6 0
0.2 0.6 0
0.1 0.7 0
0.2 0.7 0
0.2 0.6 0
0.3 0.6 0
0.2 0.7 0
0.3 0.7 0
0.3 0.6 0
0.4 0.6 0
0.3 0.7 0
0.4 0.7 0
0.4 0.6 0
0.5 0.6 0
0.4 0.7 0
0.5 0.7 0
0.5 0.6 0
0.6 0.6 0
0.5 0.7 0
0.6 0.7 0
0.6 0.6 0
0.7 0.6 0
0.6 0.7 0
0.7 0.7 0
0.7 0.6 0
0.8 0.6 0
0.7 0.7 0
0.8 0.7 0
0.8 0.6 0
0.9 0.6 0
0.8 0.7 0
0.9 0.7 0
0.9 0.6 0
1 0.6 0
0.9 0.7 0
1 0.7 0
0 0.7 0
0.1 0.7 0
0 0.8 0
0.1 0.8 0
0.1 0.7 0
0.2 0.7 0
0.1 0.8 0
0.2 0.8 0
0.2 0.7 0
0.3 0.7 0
0.2 0.8 0
0.3 0.8 0
0.3 0.7 0
0.4 0.7 0
0.3 0.8 0
0.4 0.8 0
0.4 0.7 0
0.5 0.7 0
0.4 0.8 0
0.5 0.8 0
0.5 0.7 0
0.6 0.7 0
0.5 0.8 0
0.6 0.8 0
0.6 0.7 0
0.7 0.7 0
0.6 0.8 0
0.7 0.8 0
0.7 0.7 0
0.8 0.7 0
0.7 0.8 0
0.8 0.8 0
0.8 0.7 0
0.9 0.7 0
0.8 0.8 0
0.9 0.8 0
0.9 0.7 0
1 0.7 0
0.9 0.8 0
1 0.8 0
0 0.8 0
0.1 0.8 0
0 0.9 0
0.1 0.9 0
0.1 0.8 0
0.2 0.8 0
0.1 0.9 0
0.2 0.9 0
0.2 0.8 0
0.3 0.8 0
0.2 0.9 0
0.3 0.9 0
0.3 0.8 0
0.4 0.8 0
0.3 0.9 0
0.4 0.9 0
0.4 0.8 0
0.5 0.8 0
0.4 0.9 0
0.5 0.9 0
0.5 0.8 0
0.6 0.8 0
0.5 0.9 0
0.6 0.9 0
0.6 0.8 0
0.7 0.8 0
0.6 0.9 0
0.7 0.9 0
0.7 0.8 0
0.8 0.8 0
0.7 0.9 0
0.8 0.9 0
0.8 0.8 0
0.9 0.8 0
0.8 0.9 0
0.9 0.9 0
0.9 0.8 0
1 0.8 0
0.9 0.9 0
1 0.9 0
0 0.9 0
0.1 0.9 0
0 1 0
0.1 1 0
0.1 0.9 0
0.2 0.9 0
0.1 1 0
0.2 1 0
0.2 0.9 0
0.3 0.9 0
0.2 1 0
0.3 1 0
0.3 0.9 0
0.4 0.9 0
0.3 1 0
0.4 1 0
0.4 0.9 0
0.5 0.9 0
0.4 1 0
0.5 1 0
0.5 0.9 0
0.6 0.9 0
0.5 1 0
0.6 1 0
0.6 0.9 0
0.7 0.9 0
0.6 1 0
0.7 1 0
0.7 0.9 0
0.8 0.9 0
0.7 1 0
0.8 1 0
0.8 0.9 0
0.9 0.9 0
0.8 1 0
0.9 1 0
0.9 0.9 0
1 0.9 0
0.9 1 0
1 1 0
</DataArray>
</Points>
<Cells>
<DataArray type="Int32" Name="connectivity" format="ascii">
0 1 3 2 
4 5 7 6 
8 9 11 10 
12 13 15 14 
16 17 19 18 
20 21 23 22 
24 25 27 26 
28 29 31 30 
32 33 35 34 
36 37 39 38 
40 41 43 42 
44 45 47 46 
48 49 51 50 
52 53 55 54 
56 57 59 58 
60 61 63 62 
64 65 67 66 
68 69 71 70 
72 73 75 74 
76 77 79 78 
80 81 83 82 
84 85 87 86 
88 89 91 90 
92 93 95 94 
96 97 99 98 
100 101 103 102 
104 105 107 106 
108 109 111 110 
112 113 115 114 
116 117 119 118 
120 121 123 122 
124 125 127 126 
128 129 131 130 
132 133 135 134 
136 137 139 138 
140 141 143 142 
144 145 147 146 
148 149 151 150 
152 153 155 154 
156 157 159 158 
160 161 163 162 
164 165 167 166 
168 169 171 170 
172 173 175 174 
176 177 179 178 
180 181 183 182 
184 185 187 186 
188 189 191 190 
192 193 195 194 
196 197 199 198 
200 201 203 202 
204 205 207 206 
208 209 211 210 
212 213 215 214 
216 217 219 218 
220 221 223 222 
224 225 227 226 
228 229 231 230 
232 233 235 234 
236 237 239 238 
240 241 243 242 
244 245 247 246 
248 249 251 250 
252 253 255 254 
256 257 259 258 
260 261 263 262 
264 265 267 266 
268 269 271 270 
272 273 275 274 
276 277 279 278 
280 281 283 282 
284 285 287 286 
288 289 291 290 
292 293 295 294 
296 297 299 298 
300 301 303 302 
304 305 307 306 
308 309 311 310 
312 313 315 314 
316 317 319 318 
320 321 323 322 
324 325 327 326 
328 329 331 330 
332 333 335 334 
336 337 339 338 
340 341 343 342 
344 345 347 346 
348 349 351 350 
352 353 355 354 
356 357 359 358 
360 361 363 362 
364 365 367 366 
368 369 371 370 
372 373 375 374 
376 377 379 378 
380 381 383 382 
384 385 387 386 
388 389 391 390 
392 393 395 394 
396 397 399 398 
</DataArray>
<DataArray type="Int32" Name="offsets" format="ascii">
4
8
12
16
20
24
28
32
36
40
44
48
52
56
60
64
68
72
76
80
84
88
92
96
100
104
108
112
116
120
124
128
132
136
140
144
148
152
156
160
164
168
172
176
180
184
188
192
196
200
204
208
212
216
220
224
228
232
236
240
244
248
252
256
260
264
268
272
276
280
284
288
292
296
300
304
308
312
316
320
324
328
332
336
340
344
348
352
356
360
364
368
372
376
380
384
388
392
396
400
</DataArray>
<DataArray type="UInt8" Name="types" format="ascii">
9
9
9
9
9
9
9
9
9
9
9
9
9
9
9
9
9
9
9
9
9
9
9
9
9
9
9
9
9
9
9
9
9
9
9
9
9
9
9
9
9
9
9
9
9
9
9
9
9
9
9
9
9
9
9
9
9
9
9
9
9
9
9
9
9
9
9
9
9
9
9
9
9
9
9
9
9
9
9
9
9
9
9
9
9
9
9
9
9
9
9
9
9
9
9
9
9
9
9
9
</DataArray>
</Cells>
<CellData Scalars="attribute">
<DataArray type="Int32" Name="attribute" format="ascii">
1
1
1
1
1
1
1
1
1
1
1
1
1
1
1
1
1
1
1
1
1
1
1
1
1
1
1
1
1
1
1
1
1
1
1
1
1
1
1
1
1
1
1
1
1
1
1
1
1
1
1
1
1
1
1
1
1
1
1
1
1
1
1
1
1
1
1
1
1
1
1
1
1
1
1
1
1
1
1
1
1
1
1
1
1
1
1
1
1
1
1
1
1
1
1
1
1
1
1
1
</DataArray>
</CellData>
<PointData >
<DataArray type="Float64" Name="dtemperature_dt" NumberOfComponents="1"  format="ascii" >
0.666452993
5.9542791
0.666452993
5.9542791
5.65170362
6.26356331
5.65170362
6.26356331
6.13348551
5.15227948
6.13348551
5.15227948
5.10162652
3.80441608
5.10162652
3.80441608
3.78859647
2.63694637
3.78859647
2.63694637
2.635239
1.74381529
2.635239
1.74381529
1.74702695
1.09738235
1.74702695
1.09738235
1.1017482
0.634336079
1.1017482
0.634336079
0.638562628
0.288200883
0.638562628
0.288200883
0.292067016
-0.00185462552
0.292067016
-0.00185462552
0.666452993
5.9542791
0.666452993
5.9542791
5.65170362
6.26356331
5.65170362
6.26356331
6.13348551
5.15227948
6.13348551
5.15227948
5.10162652
3.80441608
5.10162652
3.80441608
3.78859647
2.63694637
3.78859647
2.63694637
2.635239
1.74381529
2.635239
1.74381529
1.74702695
1.09738235
1.74702695
1.09738235
1.1017482
0.634336079
1.1017482
0.634336079
0.638562628
0.288200883
0.638562628
0.288200883
0.292067016
-0.00185462552
0.292067016
-0.00185462552
0.666452993
5.9542791
0.666452993
5.9542791
5.65170362
6.26356331
5.65170362
6.26356331
6.13348551
5.15227948
6.13348551
5.15227948
5.10162652
3.80441608
5.10162652
3.80441608
3.78859647
2.63694637
3.78859647
2.63694637
2.635239
1.74381529
2.635239
1.74381529
1.74702695
1.09738235
1.74702695
1.09738235
1.1017482
0.634336079
1.1017482
0.634336079
0.638562628
0.288200883
0.638562628
0.288200883
0.292067016
-0.00185462552
0.292067016
-0.00185462552
0.666452993
5.9542791
0.666452993
5.9542791
5.65170362
6.26356331
5.65170362
6.26356331
6.13348551
5.15227948
6.13348551
5.15227948
5.10162652
3.80441608
5.10162652
3.80441608
3.78859647
2.63694637
3.78859647
2.63694637
2.635239
1.74381529
2.635239
1.74381529
1.74702695
1.09738235
1.74702695
1.09738235
1.1017482
0.634336079
1.1017482
0.634336079
0.638562628
0.288200883
0.638562628
0.288200883
0.292067016
-0.00185462552
0.292067016
-0.00185462552
0.666452993
5.9542791
0.666452993
5.9542791
5.65170362
6.26356331
5.65170362
6.26356331
6.13348551
5.15227948
6.13348551
5.15227948
5.10162652
3.80441608
5.10162652
3.80441608
3.78859647
2.63694637
3.78859647
2.63694637
2.635239
1.74381529
2.635239
1.74381529
1.74702695
1.09738235
1.74702695
1.09738235
1.1017482
0.634336079
1.1017482
0.634336079
0.638562628
0.288200883
0.638562628
0.288200883
0.292067016
-0.00185462552
0.292067016
-0.00185462552
0.666452993
5.9542791
0.666452993
5.9542791
5.65170362
6.26356331
5.65170362
6.26356331
6.13348551
5.15227948
6.13348551
5.15227948
5.10162652
3.80441608
5.10162652
3.80441608
3.78859647
2.63694637
3.78859647
2.63694637
2.635239
1.74381529
2.635239
1.74381529
1.74702695
1.09738235
1.74702695
1.09738235
1.1017482
0.634336079
1.1017482
0.634336079
0.638562628
0.288200883
0.638562628
0.288200883
0.292067016
-0.00185462552
0.292067016
-0.00185462552
0.666452993
5.9542791
0.666452993
5.9542791
5.65170362
6.26356331
5.65170362
6.26356331
6.13348551
5.15227948
6.13348551
5.15227948
5.10162652
3.80441608
5.10162652
3.80441608
3.78859647
2.63694637
3.78859647
2.63694637
2.635239
1.74381529
2.635239
1.74381529
1.74702695
1.09738235
1.74702695
1.09738235
1.1017482
0.634336079
1.1017482
0.634336079
0.638562628
0.288200883
0.638562628
0.288200883
0.292067016
-0.00185462552
0.292067016
-0.00185462552
0.666452993
5.9542791
0.666452993
5.9542791
5.65170362
6.26356331
5.65170362
6.26356331
6.13348551
5.15227948
6.13348551
5.15227948
5.10162652
3.80441608
5.10162652
3.80441608
3.78859647
2.63694637
3.78859647
2.63694637
2.635239
1.74381529
2.635239
1.74381529
1.74702695
1.09738235
1.74702695
1.09738235
1.1017482
0.634336079
1.1017482
0.634336079
0.638562628
0.288200883
0.638562628
0.288200883
0.292067016
-0.00185462552
0.292067016
-0.00185462552
0.666452993
5.9542791
0.666452993
5.9542791
5.65170362
6.26356331
5.65170362
6.26356331
6.13348551
5.15227948
6.13348551
5.15227948
5.10162652
3.80441608
5.10162652
3.80441608
3.78859647
2.63694637
3.78859647
2.63694637
2.635239
1.74381529
2.635239
1.74381529
1.74702695
1.09738235
1.74702695
1.09738235
1.1017482
0.634336079
1.1017482
0.634336079
0.638562628
0.288200883
0.638562628
0.288200883
0.292067016
-0.00185462552
0.292067016
-0.00185462552
0.666452993
5.9542791
0.666452993
5.9542791
5.65170362
6.26356331
5.65170362
6.26356331
6.13348551
5.15227948
6.13348551
5.15227948
5.10162652
3.80441608
5.10162652
3.80441608
3.78859647
2.63694637
3.78859647
2.63694637
2.635239
1.74381529
2.635239
1.74381529
1.74702695
1.09738235
1.74702695
1.09738235
1.1017482
0.634336079
1.1017482
0.634336079
0.638562628
0.288200883
0.638562628
0.288200883
0.292067016
-0.00185462552
0.292067016
-0.00185462552
</DataArray>
<DataArray type="Float64" Name="heat_flux" NumberOfComponents="2" ComponentName0="0" ComponentName1="1" format="ascii" >
2.88808443 0 
2.55704783 0 
2.88808443 -3.90265321e-15 
2.55704783 3.82675543e-15 
2.55704783 0 
1.96128448 0 
2.55704783 -8.63836394e-16 
1.96128448 1.7578779e-15 
1.96128448 0 
1.39699623 0 
1.96128448 -2.35546475e-15 
1.39699623 1.04033506e-15 
1.39699623 0 
0.951694104 0 
1.39699623 -1.79046228e-15 
0.951694104 9.57014978e-16 
0.951694104 0 
0.630416962 0 
0.951694104 -2.74993777e-16 
0.630416962 -2.06535969e-16 
0.630416962 0 
0.411464247 0 
0.630416962 -3.06715757e-16 
0.411464247 4.49753064e-16 
0.411464247 0 
0.269243782 0 
0.411464247 -1.83289443e-16 
0.269243782 -5.02488877e-17 
0.269243782 0 
0.182439568 0 
0.269243782 4.02814835e-17 
0.182439568 -8.00067705e-17 
0.182439568 0 
0.136101393 0 
0.182439568 1.14103458e-16 
0.136101393 -4.79885524e-17 
0.136101393 0 
0.121590773 0 
0.136101393 -3.71117869e-17 
0.121590773 8.30363054e-19 
2.88808443 -3.90265321e-15 
2.55704783 3.82675543e-15 
2.88808443 1.24214253e-15 
2.55704783 -8.37651114e-16 
2.55704783 -8.63836394e-16 
1.96128448 1.7578779e-15 
2.55704783 -5.01864821e-16 
1.96128448 1.14662322e-15 
1.96128448 -2.35546475e-15 
1.39699623 1.04033506e-15 
1.96128448 1.04425764e-16 
1.39699623 -2.27978187e-18 
1.39699623 -1.79046228e-15 
0.951694104 9.57014978e-16 
1.39699623 -1.11778116e-17 
0.951694104 -2.1636095e-16 
0.951694104 -2.74993777e-16 
0.630416962 -2.06535969e-16 
0.951694104 -8.53981222e-16 
0.630416962 4.03330649e-16 
0.630416962 -3.06715757e-16 
0.411464247 4.49753064e-16 
0.630416962 -5.58359386e-16 
0.411464247 7.1781546e-16 
0.411464247 -1.83289443e-16 
0.269243782 -5.02488877e-17 
0.411464247 -2.61736525e-16 
0.269243782 -7.04706904e-17 
0.269243782 4.02814835e-17 
0.182439568 -8.00067705e-17 
0.269243782 1.83468838e-16 
0.182439568 -8.14349816e-17 
0.182439568 1.14103458e-16 
0.136101393 -4.79885524e-17 
0.182439568 8.09129194e-17 
0.136101393 -3.16694907e-17 
0.136101393 -3.71117869e-17 
0.121590773 8.30363054e-19 
0.136101393 4.69555273e-18 
0.121590773 1.72347557e-17 
2.88808443 1.24214253e-15 
2.55704783 -8.37651114e-16 
2.88808443 -2.52724201e-15 
2.55704783 1.39452274e-15 
2.55704783 -5.01864821e-16 
1.96128448 1.14662322e-15 
2.55704783 -7.40552752e-16 
1.96128448 -2.36164762e-16 
1.96128448 1.04425764e-16 
1.39699623 -2.27978187e-18 
1.96128448 1.38762884e-16 
1.39699623 -1.28892588e-15 
1.39699623 -1.11778116e-17 
0.951694104 -2.1636095e-16 
1.39699623 1.01522747e-15 
0.951694104 -5.02830936e-16 
0.951694104 -8.53981222e-16 
0.630416962 4.03330649e-16 
0.951694104 5.05012164e-16 
0.630416962 -7.06841962e-16 
0.630416962 -5.58359386e-16 
0.411464247 7.1781546e-16 
0.630416962 2.14122814e-16 
0.411464247 3.3221744e-16 
0.411464247 -2.61736525e-16 
0.269243782 -7.04706904e-17 
0.411464247 -1.38546028e-17 
0.269243782 -2.01357326e-16 
0.269243782 1.83468838e-16 
0.182439568 -8.14349816e-17 
0.269243782 1.03637277e-16 
0.182439568 -8.77942642e-18 
0.182439568 8.09129194e-17 
0.136101393 -3.16694907e-17 
0.182439568 1.48673083e-16 
0.136101393 -3.82058197e-17 
0.136101393 4.69555273e-18 
0.121590773 1.72347557e-17 
0.136101393 -1.45333614e-17 
0.121590773 1.47404466e-17 
2.88808443 -2.52724201e-15 
2.55704783 1.39452274e-15 
2.88808443 -2.91936085e-15 
2.55704783 3.73004743e-15 
2.55704783 -7.40552752e-16 
1.96128448 -2.36164762e-16 
2.55704783 -1.86807912e-15 
1.96128448 1.55174145e-15 
1.96128448 1.38762884e-16 
1.39699623 -1.28892588e-15 
1.96128448 1.12044241e-15 
1.39699623 -5.70390087e-16 
1.39699623 1.01522747e-15 
0.951694104 -5.02830936e-16 
1.39699623 2.03709724e-16 
0.951694104 -2.52583066e-16 
0.951694104 5.05012164e-16 
0.630416962 -7.06841962e-16 
0.951694104 -1.0247553e-16 
0.630416962 -2.11696835e-16 
0.630416962 2.14122814e-16 
0.411464247 3.3221744e-16 
0.630416962 -2.45336406e-16 
0.411464247 3.77285666e-16 
0.411464247 -1.38546028e-17 
0.269243782 -2.01357326e-16 
0.411464247 -6.66037114e-17 
0.269243782 -3.90906129e-17 
0.269243782 1.03637277e-16 
0.182439568 -8.77942642e-18 
0.269243782 1.16457414e-16 
0.182439568 -9.62980537e-17 
0.182439568 1.48673083e-16 
0.136101393 -3.82058197e-17 
0.182439568 1.18255769e-16 
0.136101393 -2.48735576e-17 
0.136101393 -1.45333614e-17 
0.121590773 1.47404466e-17 
0.136101393 -3.56540428e-17 
0.121590773 2.17775483e-17 
2.88808443 -2.91936085e-15 
2.55704783 3.73004743e-15 
2.88808443 1.5524722e-15 
2.55704783 -3.43539727e-15 
2.55704783 -1.86807912e-15 
1.96128448 1.55174145e-15 
2.55704783 1.5016294e-15 
1.96128448 4.30440552e-16 
1.96128448 1.12044241e-15 
1.39699623 -5.70390087e-16 
1.96128448 -2.55748787e-16 
1.39699623 9.36072046e-16 
1.39699623 2.03709724e-16 
0.951694104 -2.52583066e-16 
1.39699623 4.83614857e-16 
0.951694104 -3.4630857e-16 
0.951694104 -1.0247553e-16 
0.630416962 -2.11696835e-16 
0.951694104 2.52861747e-17 
0.630416962 9.04475338e-17 
0.630416962 -2.45336406e-16 
0.411464247 3.77285666e-16 
0.630416962 3.20823388e-17 
0.411464247 3.96078774e-16 
0.411464247 -6.66037114e-17 
0.269243782 -3.90906129e-17 
0.411464247 -2.40350121e-16 
0.269243782 6.4401869e-18 
0.269243782 1.16457414e-16 
0.182439568 -9.62980537e-17 
0.269243782 1.02882289e-16 
0.182439568 -7.41148541e-17 
0.182439568 1.18255769e-16 
0.136101393 -2.48735576e-17 
0.182439568 1.62593728e-16 
0.136101393 -2.80663384e-17 
0.136101393 -3.56540428e-17 
0.121590773 2.17775483e-17 
0.136101393 -1.19292337e-16 
0.121590773 6.49130114e-17 
2.88808443 1.5524722e-15 
2.55704783 -3.43539727e-15 
2.88808443 -2.83118708e-15 
2.55704783 1.99384688e-15 
2.55704783 1.5016294e-15 
1.96128448 4.30440552e-16 
2.55704783 -1.90815748e-15 
1.96128448 9.77135419e-16 
1.96128448 -2.55748787e-16 
1.39699623 9.36072046e-16 
1.96128448 1.92112497e-15 
1.39699623 -1.33928953e-15 
1.39699623 4.83614857e-16 
0.951694104 -3.4630857e-16 
1.39699623 5.01251034e-16 
0.951694104 -3.20962649e-16 
0.951694104 2.52861747e-17 
0.630416962 9.04475338e-17 
0.951694104 1.02042455e-15 
0.630416962 -1.04681788e-15 
0.630416962 3.20823388e-17 
0.411464247 3.96078774e-16 
0.630416962 2.43626045e-16 
0.411464247 4.5533676e-16 
0.411464247 -2.40350121e-16 
0.269243782 6.4401869e-18 
0.411464247 -1.04123188e-16 
0.269243782 -2.02204387e-16 
0.269243782 1.02882289e-16 
0.182439568 -7.41148541e-17 
0.269243782 2.28727185e-16 
0.182439568 -1.52683151e-16 
0.182439568 1.62593728e-16 
0.136101393 -2.80663384e-17 
0.182439568 1.09303103e-16 
0.136101393 2.50656668e-17 
0.136101393 -1.19292337e-16 
0.121590773 6.49130114e-17 
0.136101393 -1.22111556e-17 
0.121590773 1.07755531e-17 
2.88808443 -2.83118708e-15 
2.55704783 1.99384688e-15 
2.88808443 -4.191944e-15 
2.55704783 3.75485293e-15 
2.55704783 -1.90815748e-15 
1.96128448 9.77135419e-16 
2.55704783 -5.40645721e-16 
1.96128448 3.66874462e-17 
1.96128448 1.92112497e-15 
1.39699623 -1.33928953e-15 
1.96128448 -1.37898314e-15 
1.39699623 1.31575845e-15 
1.39699623 5.01251034e-16 
0.951694104 -3.20962649e-16 
1.39699623 -9.88793299e-16 
0.951694104 1.04274074e-16 
0.951694104 1.02042455e-15 
0.630416962 -1.04681788e-15 
0.951694104 3.37150716e-16 
0.630416962 -7.54032846e-16 
0.630416962 2.43626045e-16 
0.411464247 4.5533676e-16 
0.630416962 1.23562255e-16 
0.411464247 3.01190615e-16 
0.411464247 -1.04123188e-16 
0.269243782 -2.02204387e-16 
0.411464247 -2.61252196e-16 
0.269243782 -9.33300992e-17 
0.269243782 2.28727185e-16 
0.182439568 -1.52683151e-16 
0.269243782 -6.19441825e-17 
0.182439568 6.41276902e-17 
0.182439568 1.09303103e-16 
0.136101393 2.50656668e-17 
0.182439568 4.20822283e-17 
0.136101393 -1.06736483e-17 
0.136101393 -1.22111556e-17 
0.121590773 1.07755531e-17 
0.136101393 -8.81728081e-17 
0.121590773 7.3767057e-17 
2.88808443 -4.191944e-15 
2.55704783 3.75485293e-15 
2.88808443 -3.97608908e-15 
2.55704783 2.37754495e-15 
2.55704783 -5.40645721e-16 
1.96128448 3.66874462e-17 
2.55704783 -6.1701204e-16 
1.96128448 2.50284341e-16 
1.96128448 -1.37898314e-15 
1.39699623 1.31575845e-15 
1.96128448 -1.06718787e-15 
1.39699623 1.3211072e-15 
1.39699623 -9.88793299e-16 
0.951694104 1.04274074e-16 
1.39699623 -3.26461573e-16 
0.951694104 -4.12312929e-16 
0.951694104 3.37150716e-16 
0.630416962 -7.54032846e-16 
0.951694104 8.61134257e-16 
0.630416962 -4.44703058e-16 
0.630416962 1.23562255e-16 
0.411464247 3.01190615e-16 
0.630416962 1.83031574e-16 
0.411464247 1.93223125e-16 
0.411464247 -2.61252196e-16 
0.269243782 -9.33300992e-17 
0.411464247 1.73147351e-17 
0.269243782 -9.5231335e-17 
0.269243782 -6.19441825e-17 
0.182439568 6.41276902e-17 
0.269243782 9.56285742e-17 
0.182439568 2.50024515e-17 
0.182439568 4.20822283e-17 
0.136101393 -1.06736483e-17 
0.182439568 2.08672204e-17 
0.136101393 4.09111729e-17 
0.136101393 -8.81728081e-17 
0.121590773 7.3767057e-17 
0.136101393 7.73406238e-18 
0.121590773 -4.20828309e-17 
2.88808443 -3.97608908e-15 
2.55704783 2.37754495e-15 
2.88808443 9.6837245e-15 
2.55704783 -4.75150686e-15 
2.55704783 -6.1701204e-16 
1.96128448 2.50284341e-16 
2.55704783 7.38598968e-16 
1.96128448 6.58625614e-16 
1.96128448 -1.06718787e-15 
1.39699623 1.3211072e-15 
1.96128448 -2.18010476e-16 
1.39699623 4.22666119e-16 
1.39699623 -3.26461573e-16 
0.951694104 -4.12312929e-16 
1.39699623 3.32314319e-17 
0.951694104 -4.9291213e-16 
0.951694104 8.61134257e-16 
0.630416962 -4.44703058e-16 
0.951694104 6.80618155e-16 
0.630416962 -2.37875214e-16 
0.630416962 1.83031574e-16 
0.411464247 1.93223125e-16 
0.630416962 -2.5562757e-16 
0.411464247 5.68887933e-16 
0.411464247 1.73147351e-17 
0.269243782 -9.5231335e-17 
0.411464247 2.60740346e-17 
0.269243782 -2.48829674e-17 
0.269243782 9.56285742e-17 
0.182439568 2.50024515e-17 
0.269243782 1.59134925e-16 
0.182439568 3.49692999e-17 
0.182439568 2.08672204e-17 
0.136101393 4.09111729e-17 
0.182439568 1.98368556e-17 
0.136101393 5.41092143e-17 
0.136101393 7.73406238e-18 
0.121590773 -4.20828309e-17 
0.136101393 -3.61176221e-17 
0.121590773 3.27096415e-17 
2.88808443 9.6837245e-15 
2.55704783 -4.75150686e-15 
2.88808443 0 
2.55704783 0 
2.55704783 7.38598968e-16 
1.96128448 6.58625614e-16 
2.55704783 0 
1.96128448 0 
1.96128448 -2.18010476e-16 
1.39699623 4.22666119e-16 
1.96128448 0 
1.39699623 0 
1.39699623 3.32314319e-17 
0.951694104 -4.9291213e-16 
1.39699623 0 
0.951694104 0 
0.951694104 6.80618155e-16 
0.630416962 -2.37875214e-16 
0.951694104 0 
0.630416962 0 
0.630416962 -2.5562757e-16 
0.411464247 5.68887933e-16 
0.630416962 0 
0.411464247 0 
0.411464247 2.60740346e-17 
0.269243782 -2.48829674e-17 
0.411464247 0 
0.269243782 0 
0.269243782 1.59134925e-16 
0.182439568 3.49692999e-17 
0.269243782 0 
0.182439568 0 
0.182439568 1.98368556e-17 
0.136101393 5.41092143e-17 
0.182439568 0 
0.136101393 0 
0.136101393 -3.61176221e-17 
0.121590773 3.27096415e-17 
0.136101393 0 
0.121590773 0 
</DataArray>
<DataArray type="Float64" Name="temperature" NumberOfComponents="1"  format="ascii" >
0.997682014
0.720137575
0.997682014
0.720137575
0.718423159
0.491894683
0.718423159
0.491894683
0.492126197
0.325193367
0.492126197
0.325193367
0.32599505
0.209857744
0.32599505
0.209857744
0.210687214
0.13273331
0.210687214
0.13273331
0.133415758
0.0822131212
0.133415758
0.0822131212
0.0827241342
0.0493383774
0.0827241342
0.0493383774
0.0497070914
0.0275903361
0.0497070914
0.0275903361
0.0278594052
0.0122827189
0.0278594052
0.0122827189
0.0124942583
-9.64283591e-05
0.0124942583
-9.64283591e-05
0.997682014
0.720137575
0.997682014
0.720137575
0.718423159
0.491894683
0.718423159
0.491894683
0.492126197
0.325193367
0.492126197
0.325193367
0.32599505
0.209857744
0.32599505
0.209857744
0.210687214
0.13273331
0.210687214
0.13273331
0.133415758
0.0822131212
0.133415758
0.0822131212
0.0827241342
0.0493383774
0.0827241342
0.0493383774
0.0497070914
0.0275903361
0.0497070914
0.0275903361
0.0278594052
0.0122827189
0.0278594052
0.0122827189
0.0124942583
-9.64283591e-05
0.0124942583
-9.64283591e-05
0.997682014
0.720137575
0.997682014
0.720137575
0.718423159
0.491894683
0.718423159
0.491894683
0.492126197
0.325193367
0.492126197
0.325193367
0.32599505
0.209857744
0.32599505
0.209857744
0.210687214
0.13273331
0.210687214
0.13273331
0.133415758
0.0822131212
0.133415758
0.0822131212
0.0827241342
0.0493383774
0.0827241342
0.0493383774
0.0497070914
0.0275903361
0.0497070914
0.0275903361
0.0278594052
0.0122827189
0.0278594052
0.0122827189
0.0124942583
-9.64283591e-05
0.0124942583
-9.64283591e-05
0.997682014
0.720137575
0.997682014
0.720137575
0.718423159
0.491894683
0.718423159
0.491894683
0.492126197
0.325193367
0.492126197
0.325193367
0.32599505
0.209857744
0.32599505
0.209857744
0.210687214
0.13273331
0.210687214
0.13273331
0.133415758
0.0822131212
0.133415758
0.0822131212
0.0827241342
0.0493383774
0.0827241342
0.0493383774
0.0497070914
0.0275903361
0.0497070914
0.0275903361
0.0278594052
0.0122827189
0.0278594052
0.0122827189
0.0124942583
-9.64283591e-05
0.0124942583
-9.64283591e-05
0.997682014
0.720137575
0.997682014
0.720137575
0.718423159
0.491894683
0.718423159
0.491894683
0.492126197
0.325193367
0.492126197
0.325193367
0.32599505
0.209857744
0.32599505
0.209857744
0.210687214
0.13273331
0.210687214
0.13273331
0.133415758
0.0822131212
0.133415758
0.0822131212
0.0827241342
0.0493383774
0.0827241342
0.0493383774
0.0497070914
0.0275903361
0.0497070914
0.0275903361
0.0278594052
0.0122827189
0.0278594052
0.0122827189
0.0124942583
-9.64283591e-05
0.0124942583
-9.64283591e-05
0.997682014
0.720137575
0.997682014
0.720137575
0.718423159
0.491894683
0.718423159
0.491894683
0.492126197
0.325193367
0.492126197
0.325193367
0.32599505
0.209857744
0.32599505
0.209857744
0.210687214
0.13273331
0.210687214
0.13273331
0.133415758
0.0822131212
0.133415758
0.0822131212
0.0827241342
0.0493383774
0.0827241342
0.0493383774
0.0497070914
0.0275903361
0.0497070914
0.0275903361
0.0278594052
0.0122827189
0.0278594052
0.0122827189
0.0124942583
-9.64283591e-05
0.0124942583
-9.64283591e-05
0.997682014
0.720137575
0.997682014
0.720137575
0.718423159
0.491894683
0.718423159
0.491894683
0.492126197
0.325193367
0.492126197
0.325193367
0.32599505
0.209857744
0.32599505
0.209857744
0.210687214
0.13273331
0.210687214
0.13273331
0.133415758
0.0822131212
0.133415758
0.0822131212
0.0827241342
0.0493383774
0.0827241342
0.0493383774
0.0497070914
0.0275903361
0.0497070914
0.0275903361
0.0278594052
0.0122827189
0.0278594052
0.0122827189
0.0124942583
-9.64283591e-05
0.0124942583
-9.64283591e-05
0.997682014
0.720137575
0.997682014
0.720137575
0.718423159
0.491894683
0.718423159
0.491894683
0.492126197
0.325193367
0.492126197
0.325193367
0.32599505
0.209857744
0.32599505
0.209857744
0.210687214
0.13273331
0.210687214
0.13273331
0.133415758
0.0822131212
0.133415758
0.0822131212
0.0827241342
0.0493383774
0.0827241342
0.0493383774
0.0497070914
0.0275903361
0.0497070914
0.0275903361
0.0278594052
0.0122827189
0.0278594052
0.0122827189
0.0124942583
-9.64283591e-05
0.0124942583
-9.64283591e-05
0.997682014
0.720137575
0.997682014
0.720137575
0.718423159
0.491894683
0.718423159
0.491894683
0.492126197
0.325193367
0.492126197
0.325193367
0.32599505
0.209857744
0.32599505
0.209857744
0.210687214
0.13273331
0.210687214
0.13273331
0.133415758
0.0822131212
0.133415758
0.0822131212
0.0827241342
0.0493383774
0.0827241342
0.0493383774
0.0497070914
0.0275903361
0.0497070914
0.0275903361
0.0278594052
0.0122827189
0.0278594052
0.0122827189
0.0124942583
-9.64283591e-05
0.0124942583
-9.64283591e-05
0.997682014
0.720137575
0.997682014
0.720137575
0.718423159
0.491894683
0.718423159
0.491894683
0.492126197
0.325193367
0.492126197
0.325193367
0.32599505
0.209857744
0.32599505
0.209857744
0.210687214
0.13273331
0.210687214
0.13273331
0.133415758
0.0822131212
0.133415758
0.0822131212
0.0827241342
0.0493383774
0.0827241342
0.0493383774
0.0497070914
0.0275903361
0.0497070914
0.0275903361
0.0278594052
0.0122827189
0.0278594052
0.0122827189
0.0124942583
-9.64283591e-05
0.0124942583
-9.64283591e-05
</DataArray>
<DataArray type="Float64" Name="time_integrated_heat_flux" NumberOfComponents="2" ComponentName0="0" ComponentName1="1" format="ascii" >
0.259838033 0 
0.173947053 0 
0.259838033 -4.01694367e-17 
0.173947053 5.30101543e-17 
0.173947053 0 
0.113431161 0 
0.173947053 1.7500213e-17 
0.113431161 3.4466294e-17 
0.113431161 0 
0.0725651829 0 
0.113431161 -1.02091759e-16 
0.0725651829 4.19414068e-17 
0.0725651829 0 
0.0457725432 0 
0.0725651829 -4.9941233e-17 
0.0457725432 1.55140013e-17 
0.0457725432 0 
0.0286015169 0 
0.0457725432 -1.84479504e-17 
0.0286015169 -8.2822572e-20 
0.0286015169 0 
0.017820073 0 
0.0286015169 -7.02163169e-18 
0.017820073 9.35988684e-18 
0.017820073 0 
0.0112169474 0 
0.017820073 -6.44567966e-18 
0.0112169474 5.92934515e-19 
0.0112169474 0 
0.00735207604 0 
0.0112169474 -1.34064715e-18 
0.00735207604 -8.4345914e-19 
0.00735207604 0 
0.00534496983 0 
0.00735207604 4.45453054e-18 
0.00534496983 -2.26110417e-18 
0.00534496983 0 
0.00472507833 0 
0.00534496983 -8.84635557e-19 
0.00472507833 -2.11121868e-19 
0.259838033 -4.01694367e-17 
0.173947053 5.30101543e-17 
0.259838033 2.89899203e-17 
0.173947053 -3.6735297e-17 
0.173947053 1.7500213e-17 
0.113431161 3.4466294e-17 
0.173947053 7.32293435e-18 
0.113431161 4.05392911e-17 
0.113431161 -1.02091759e-16 
0.0725651829 4.19414068e-17 
0.113431161 1.17843136e-17 
0.0725651829 -1.08488572e-17 
0.0725651829 -4.9941233e-17 
0.0457725432 1.55140013e-17 
0.0725651829 -1.34547332e-17 
0.0457725432 -6.45670125e-18 
0.0457725432 -1.84479504e-17 
0.0286015169 -8.2822572e-20 
0.0457725432 -3.28764793e-17 
0.0286015169 7.04502035e-18 
0.0286015169 -7.02163169e-18 
0.017820073 9.35988684e-18 
0.0286015169 -1.90571212e-17 
0.017820073 2.6436239e-17 
0.017820073 -6.44567966e-18 
0.0112169474 5.92934515e-19 
0.017820073 -1.00819253e-17 
0.0112169474 -4.21005978e-20 
0.0112169474 -1.34064715e-18 
0.00735207604 -8.4345914e-19 
0.0112169474 2.96148406e-18 
0.00735207604 -9.68604583e-19 
0.00735207604 4.45453054e-18 
0.00534496983 -2.26110417e-18 
0.00735207604 3.0574217e-18 
0.00534496983 -7.41117778e-19 
0.00534496983 -8.84635557e-19 
0.00472507833 -2.11121868e-19 
0.00534496983 -2.87487204e-19 
0.00472507833 7.4507846e-19 
0.259838033 2.89899203e-17 
0.173947053 -3.6735297e-17 
0.259838033 -3.56449612e-17 
0.173947053 6.93849208e-18 
0.173947053 7.32293435e-18 
0.113431161 4.05392911e-17 
0.173947053 2.21069145e-17 
0.113431161 -2.67090972e-17 
0.113431161 1.17843136e-17 
0.0725651829 -1.08488572e-17 
0.113431161 -1.47351337e-17 
0.0725651829 -1.55171273e-17 
0.0725651829 -1.34547332e-17 
0.0457725432 -6.45670125e-18 
0.0725651829 2.54731951e-17 
0.0457725432 -2.20643867e-17 