<VTKFile type="UnstructuredGrid" version="2.2" byte_order="LittleEndian">
<UnstructuredGrid>
<Piece NumberOfPoints="400" NumberOfCells="100">
<Points>
<DataArray type="Float64" NumberOfComponents="3" format="ascii">
0 0 0
0.1 0 0
0 0.1 0
0.1 0.1 0
0.1 0 0
0.2 0 0
0.1 0.1 0
0.2 0.1 0
0.2 0 0
0.3 0 0
0.2 0.1 0
0.3 0.1 0
0.3 0 0
0.4 0 0
0.3 0.1 0
0.4 0.1 0
0.4 0 0
0.5 0 0
0.4 0.1 0
0.5 0.1 0
0.5 0 0
0.6 0 0
0.5 0.1 0
0.6 0.1 0
0.6 0 0
0.7 0 0
0.6 0.1 0
0.7 0.1 0
0.7 0 0
0.8 0 0
0.7 0.1 0
0.8 0.1 0
0.8 0 0
0.9 0 0
0.8 0.1 0
0.9 0.1 0
0.9 0 0
1 0 0
0.9 0.1 0
1 0.1 0
0 0.1 0
0.1 0.1 0
0 0.2 0
0.1 0.2 0
0.1 0.1 0
0.2 0.1 0
0.1 0.2 0
0.2 0.2 0
0.2 0.1 0
0.3 0.1 0
0.2 0.2 0
0.3 0.2 0
0.3 0.1 0
0.4 0.1 0
0.3 0.2 0
0.4 0.2 0
0.4 0.1 0
0.5 0.1 0
0.4 0.2 0
0.5 0.2 0
0.5 0.1 0
0.6 0.1 0
0.5 0.2 0
0.6 0.2 0
0.6 0.1 0
0.7 0.1 0
0.6 0.2 0
0.7 0.2 0
0.7 0.1 0
0.8 0.1 0
0.7 0.2 0
0.8 0.2 0
0.8 0.1 0
0.9 0.1 0
0.8 0.2 0
0.9 0.2 0
0.9 0.1 0
1 0.1 0
0.9 0.2 0
1 0.2 0
0 0.2 0
0.1 0.2 0
0 0.3 0
0.1 0.3 0
0.1 0.2 0
0.2 0.2 0
0.1 0.3 0
0.2 0.3 0
0.2 0.2 0
0.3 0.2 0
0.2 0.3 0
0.3 0.3 0
0.3 0.2 0
0.4 0.2 0
0.3 0.3 0
0.4 0.3 0
0.4 0.2 0
0.5 0.2 0
0.4 0.3 0
0.5 0.3 0
0.5 0.2 0
0.6 0.2 0
0.5 0.3 0
0.6 0.3 0
0.6 0.2 0
0.7 0.2 0
0.6 0.3 0
0.7 0.3 0
0.7 0.2 0
0.8 0.2 0
0.7 0.3 0
0.8 0.3 0
0.8 0.2 0
0.9 0.2 0
0.8 0.3 0
0.9 0.3 0
0.9 0.2 0
1 0.2 0
0.9 0.3 0
1 0.3 0
0 0.3 0
0.1 0.3 0
0 0.4 0
0.1 0.4 0
0.1 0.3 0
0.2 0.3 0
0.1 0.4 0
0.2 0.4 0
0.2 0.3 0
0.3 0.3 0
0.2 0.4 0
0.3 0.4 0
0.3 0.3 0
0.4 0.3 0
0.3 0.4 0
0.4 0.4 0
0.4 0.3 0
0.5 0.3 0
0.4 0.4 0
0.5 0.4 0
0.5 0.3 0
0.6 0.3 0
0.5 0.4 0
0.6 0.4 0
0.6 0.3 0
0.7 0.3 0
0.6 0.4 0
0.7 0.4 0
0.7 0.3 0
0.8 0.3 0
0.7 0.4 0
0.8 0.4 0
0.8 0.3 0
0.9 0.3 0
0.8 0.4 0
0.9 0.4 0
0.9 0.3 0
1 0.3 0
0.9 0.4 0
1 0.4 0
0 0.4 0
0.1 0.4 0
0 0.5 0
0.1 0.5 0
0.1 0.4 0
0.2 0.4 0
0.1 0.5 0
0.2 0.5 0
0.2 0.4 0
0.3 0.4 0
0.2 0.5 0
0.3 0.5 0
0.3 0.4 0
0.4 0.4 0
0.3 0.5 0
0.4 0.5 0
0.4 0.4 0
0.5 0.4 0
0.4 0.5 0
0.5 0.5 0
0.5 0.4 0
0.6 0.4 0
0.5 0.5 0
0.6 0.5 0
0.6 0.4 0
0.7 0.4 0
0.6 0.5 0
0.7 0.5 0
0.7 0.4 0
0.8 0.4 0
0.7 0.5 0
0.8 0.5 0
0.8 0.4 0
0.9 0.4 0
0.8 0.5 0
0.9 0.5 0
0.9 0.4 0
1 0.4 0
0.9 0.5 0
1 0.5 0
0 0.5 0
0.1 0.5 0
0 0.6 0
0.1 0.6 0
0.1 0.5 0
0.2 0.5 0
0.1 0.6 0
0.2 0.6 0
0.2 0.5 0
0.3 0.5 0
0.2 0.6 0
0.3 0.6 0
0.3 0.5 0
0.4 0.5 0
0.3 0.6 0
0.4 0.6 0
0.4 0.5 0
0.5 0.5 0
0.4 0.6 0
0.5 0.6 0
0.5 0.5 0
0.6 0.5 0
0.5 0.6 0
0.6 0.6 0
0.6 0.5 0
0.7 0.5 0
0.6 0.6 0
0.7 0.6 0
0.7 0.5 0
0.8 0.5 0
0.7 0.6 0
0.8 0.6 0
0.8 0.5 0
0.9 0.5 0
0.8 0.6 0
0.9 0.6 0
0.9 0.5 0
1 0.5 0
0.9 0.6 0
1 0.6 0
0 0.6 0
0.1 0.6 0
0 0.7 0
0.1 0.7 0
0.1 0.6 0
0.2 0.6 0
0.1 0.7 0
0.2 0.7 0
0.2 0.6 0
0.3 0.6 0
0.2 0.7 0
0.3 0.7 0
0.3 0.6 0
0.4 0.6 0
0.3 0.7 0
0.4 0.7 0
0.4 0.6 0
0.5 0.6 0
0.4 0.7 0
0.5 0.7 0
0.5 0.6 0
0.6 0.6 0
0.5 0.7 0
0.6 0.7 0
0.6 0.6 0
0.7 0.6 0
0.6 0.7 0
0.7 0.7 0
0.7 0.6 0
0.8 0.6 0
0.7 0.7 0
0.8 0.7 0
0.8 0.6 0
0.9 0.6 0
0.8 0.7 0
0.9 0.7 0
0.9 0.6 0
1 0.6 0
0.9 0.7 0
1 0.7 0
0 0.7 0
0.1 0.7 0
0 0.8 0
0.1 0.8 0
0.1 0.7 0
0.2 0.7 0
0.1 0.8 0
0.2 0.8 0
0.2 0.7 0
0.3 0.7 0
0.2 0.8 0
0.3 0.8 0
0.3 0.7 0
0.4 0.7 0
0.3 0.8 0
0.4 0.8 0
0.4 0.7 0
0.5 0.7 0
0.4 0.8 0
0.5 0.8 0
0.5 0.7 0
0.6 0.7 0
0.5 0.8 0
0.6 0.8 0
0.6 0.7 0
0.7 0.7 0
0.6 0.8 0
0.7 0.8 0
0.7 0.7 0
0.8 0.7 0
0.7 0.8 0
0.8 0.8 0
0.8 0.7 0
0.9 0.7 0
0.8 0.8 0
0.9 0.8 0
0.9 0.7 0
1 0.7 0
0.9 0.8 0
1 0.8 0
0 0.8 0
0.1 0.8 0
0 0.9 0
0.1 0.9 0
0.1 0.8 0
0.2 0.8 0
0.1 0.9 0
0.2 0.9 0
0.2 0.8 0
0.3 0.8 0
0.2 0.9 0
0.3 0.9 0
0.3 0.8 0
0.4 0.8 0
0.3 0.9 0
0.4 0.9 0
0.4 0.8 0
0.5 0.8 0
0.4 0.9 0
0.5 0.9 0
0.5 0.8 0
0.6 0.8 0
0.5 0.9 0
0.6 0.9 0
0.6 0.8 0
0.7 0.8 0
0.6 0.9 0
0.7 0.9 0
0.7 0.8 0
0.8 0.8 0
0.7 0.9 0
0.8 0.9 0
0.8 0.8 0
0.9 0.8 0
0.8 0.9 0
0.9 0.9 0
0.9 0.8 0
1 0.8 0
0.9 0.9 0
1 0.9 0
0 0.9 0
0.1 0.9 0
0 1 0
0.1 1 0
0.1 0.9 0
0.2 0.9 0
0.1 1 0
0.2 1 0
0.2 0.9 0
0.3 0.9 0
0.2 1 0
0.3 1 0
0.3 0.9 0
0.4 0.9 0
0.3 1 0
0.4 1 0
0.4 0.9 0
0.5 0.9 0
0.4 1 0
0.5 1 0
0.5 0.9 0
0.6 0.9 0
0.5 1 0
0.6 1 0
0.6 0.9 0
0.7 0.9 0
0.6 1 0
0.7 1 0
0.7 0.9 0
0.8 0.9 0
0.7 1 0
0.8 1 0
0.8 0.9 0
0.9 0.9 0
0.8 1 0
0.9 1 0
0.9 0.9 0
1 0.9 0
0.9 1 0
1 1 0
</DataArray>
</Points>
<Cells>
<DataArray type="Int32" Name="connectivity" format="ascii">
0 1 3 2 
4 5 7 6 
8 9 11 10 
12 13 15 14 
16 17 19 18 
20 21 23 22 
24 25 27 26 
28 29 31 30 
32 33 35 34 
36 37 39 38 
40 41 43 42 
44 45 47 46 
48 49 51 50 
52 53 55 54 
56 57 59 58 
60 61 63 62 
64 65 67 66 
68 69 71 70 
72 73 75 74 
76 77 79 78 
80 81 83 82 
84 85 87 86 
88 89 91 90 
92 93 95 94 
96 97 99 98 
100 101 103 102 
104 105 107 106 
108 109 111 110 
112 113 115 114 
116 117 119 118 
120 121 123 122 
124 125 127 126 
128 129 131 130 
132 133 135 134 
136 137 139 138 
140 141 143 142 
144 145 147 146 
148 149 151 150 
152 153 155 154 
156 157 159 158 
160 161 163 162 
164 165 167 166 
168 169 171 170 
172 173 175 174 
176 177 179 178 
180 181 183 182 
184 185 187 186 
188 189 191 190 
192 193 195 194 
196 197 199 198 
200 201 203 202 
204 205 207 206 
208 209 211 210 
212 213 215 214 
216 217 219 218 
220 221 223 222 
224 225 227 226 
228 229 231 230 
232 233 235 234 
236 237 239 238 
240 241 243 242 
244 245 247 246 
248 249 251 250 
252 253 255 254 
256 257 259 258 
260 261 263 262 
264 265 267 266 
268 269 271 270 
272 273 275 274 
276 277 279 278 
280 281 283 282 
284 285 287 286 
288 289 291 290 
292 293 295 294 
296 297 299 298 
300 301 303 302 
304 305 307 306 
308 309 311 310 
312 313 315 314 
316 317 319 318 
320 321 323 322 
324 325 327 326 
328 329 331 330 
332 333 335 334 
336 337 339 338 
340 341 343 342 
344 345 347 346 
348 349 351 350 
352 353 355 354 
356 357 359 358 
360 361 363 362 
364 365 367 366 
368 369 371 370 
372 373 375 374 
376 377 379 378 
380 381 383 382 
384 385 387 386 
388 389 391 390 
392 393 395 394 
396 397 399 398 
</DataArray>
<DataArray type="Int32" Name="offsets" format="ascii">
4
8
12
16
20
24
28
32
36
40
44
48
52
56
60
64
68
72
76
80
84
88
92
96
100
104
108
112
116
120
124
128
132
136
140
144
148
152
156
160
164
168
172
176
180
184
188
192
196
200
204
208
212
216
220
224
228
232
236
240
244
248
252
256
260
264
268
272
276
280
284
288
292
296
300
304
308
312
316
320
324
328
332
336
340
344
348
352
356
360
364
368
372
376
380
384
388
392
396
400
</DataArray>
<DataArray type="UInt8" Name="types" format="ascii">
9
9
9
9
9
9
9
9
9
9
9
9
9
9
9
9
9
9
9
9
9
9
9
9
9
9
9
9
9
9
9
9
9
9
9
9
9
9
9
9
9
9
9
9
9
9
9
9
9
9
9
9
9
9
9
9
9
9
9
9
9
9
9
9
9
9
9
9
9
9
9
9
9
9
9
9
9
9
9
9
9
9
9
9
9
9
9
9
9
9
9
9
9
9
9
9
9
9
9
9
</DataArray>
</Cells>
<CellData Scalars="attribute">
<DataArray type="Int32" Name="attribute" format="ascii">
1
1
1
1
1
1
1
1
1
1
1
1
1
1
1
1
1
1
1
1
1
1
1
1
1
1
1
1
1
1
1
1
1
1
1
1
1
1
1
1
1
1
1
1
1
1
1
1
1
1
1
1
1
1
1
1
1
1
1
1
1
1
1
1
1
1
1
1
1
1
1
1
1
1
1
1
1
1
1
1
1
1
1
1
1
1
1
1
1
1
1
1
1
1
1
1
1
1
1
1
</DataArray>
</CellData>
<PointData >
<DataArray type="Float64" Name="dtemperature_dt" NumberOfComponents="1"  format="ascii" >
2.12421697
2.12421697
2.12421697
2.12421697
4.02197984
4.02197984
4.02197984
4.02197984
4.90886676
4.90886676
4.90886676
4.90886676
5.10108434
5.10108434
5.10108434
5.10108434
4.82397245
4.82397245
4.82397245
4.82397245
4.23612193
4.23612193
4.23612193
4.23612193
3.44758637
3.44758637
3.44758637
3.44758637
2.53370776
2.53370776
2.53370776
2.53370776
1.54574073
1.54574073
1.54574073
1.54574073
0.519213295
0.519213295
0.519213295
0.519213295
2.12421697
2.12421697
2.12421697
2.12421697
4.02197984
4.02197984
4.02197984
4.02197984
4.90886676
4.90886676
4.90886676
4.90886676
5.10108434
5.10108434
5.10108434
5.10108434
4.82397245
4.82397245
4.82397245
4.82397245
4.23612193
4.23612193
4.23612193
4.23612193
3.44758637
3.44758637
3.44758637
3.44758637
2.53370776
2.53370776
2.53370776
2.53370776
1.54574073
1.54574073
1.54574073
1.54574073
0.519213295
0.519213295
0.519213295
0.519213295
2.12421697
2.12421697
2.12421697
2.12421697
4.02197984
4.02197984
4.02197984
4.02197984
4.90886676
4.90886676
4.90886676
4.90886676
5.10108434
5.10108434
5.10108434
5.10108434
4.82397245
4.82397245
4.82397245
4.82397245
4.23612193
4.23612193
4.23612193
4.23612193
3.44758637
3.44758637
3.44758637
3.44758637
2.53370776
2.53370776
2.53370776
2.53370776
1.54574073
1.54574073
1.54574073
1.54574073
0.519213295
0.519213295
0.519213295
0.519213295
2.12421697
2.12421697
2.12421697
2.12421697
4.02197984
4.02197984
4.02197984
4.02197984
4.90886676
4.90886676
4.90886676
4.90886676
5.10108434
5.10108434
5.10108434
5.10108434
4.82397245
4.82397245
4.82397245
4.82397245
4.23612193
4.23612193
4.23612193
4.23612193
3.44758637
3.44758637
3.44758637
3.44758637
2.53370776
2.53370776
2.53370776
2.53370776
1.54574073
1.54574073
1.54574073
1.54574073
0.519213295
0.519213295
0.519213295
0.519213295
2.12421697
2.12421697
2.12421697
2.12421697
4.02197984
4.02197984
4.02197984
4.02197984
4.90886676
4.90886676
4.90886676
4.90886676
5.10108434
5.10108434
5.10108434
5.10108434
4.82397245
4.82397245
4.82397245
4.82397245
4.23612193
4.23612193
4.23612193
4.23612193
3.44758637
3.44758637
3.44758637
3.44758637
2.53370776
2.53370776
2.53370776
2.53370776
1.54574073
1.54574073
1.54574073
1.54574073
0.519213295
0.519213295
0.519213295
0.519213295
2.12421697
2.12421697
2.12421697
2.12421697
4.02197984
4.02197984
4.02197984
4.02197984
4.90886676
4.90886676
4.90886676
4.90886676
5.10108434
5.10108434
5.10108434
5.10108434
4.82397245
4.82397245
4.82397245
4.82397245
4.23612193
4.23612193
4.23612193
4.23612193
3.44758637
3.44758637
3.44758637
3.44758637
2.53370776
2.53370776
2.53370776
2.53370776
1.54574073
1.54574073
1.54574073
1.54574073
0.519213295
0.519213295
0.519213295
0.519213295
2.12421697
2.12421697
2.12421697
2.12421697
4.02197984
4.02197984
4.02197984
4.02197984
4.90886676
4.90886676
4.90886676
4.90886676
5.10108434
5.10108434
5.10108434
5.10108434
4.82397245
4.82397245
4.82397245
4.82397245
4.23612193
4.23612193
4.23612193
4.23612193
3.44758637
3.44758637
3.44758637
3.44758637
2.53370776
2.53370776
2.53370776
2.53370776
1.54574073
1.54574073
1.54574073
1.54574073
0.519213295
0.519213295
0.519213295
0.519213295
2.12421697
2.12421697
2.12421697
2.12421697
4.02197984
4.02197984
4.02197984
4.02197984
4.90886676
4.90886676
4.90886676
4.90886676
5.10108434
5.10108434
5.10108434
5.10108434
4.82397245
4.82397245
4.82397245
4.82397245
4.23612193
4.23612193
4.23612193
4.23612193
3.44758637
3.44758637
3.44758637
3.44758637
2.53370776
2.53370776
2.53370776
2.53370776
1.54574073
1.54574073
1.54574073
1.54574073
0.519213295
0.519213295
0.519213295
0.519213295
2.12421697
2.12421697
2.12421697
2.12421697
4.02197984
4.02197984
4.02197984
4.02197984
4.90886676
4.90886676
4.90886676
4.90886676
5.10108434
5.10108434
5.10108434
5.10108434
4.82397245
4.82397245
4.82397245
4.82397245
4.23612193
4.23612193
4.23612193
4.23612193
3.44758637
3.44758637
3.44758637
3.44758637
2.53370776
2.53370776
2.53370776
2.53370776
1.54574073
1.54574073
1.54574073
1.54574073
0.519213295
0.519213295
0.519213295
0.519213295
2.12421697
2.12421697
2.12421697
2.12421697
4.02197984
4.02197984
4.02197984
4.02197984
4.90886676
4.90886676
4.90886676
4.90886676
5.10108434
5.10108434
5.10108434
5.10108434
4.82397245
4.82397245
4.82397245
4.82397245
4.23612193
4.23612193
4.23612193
4.23612193
3.44758637
3.44758637
3.44758637
3.44758637
2.53370776
2.53370776
2.53370776
2.53370776
1.54574073
1.54574073
1.54574073
1.54574073
0.519213295
0.519213295
0.519213295
0.519213295
</DataArray>
<DataArray type="Float64" Name="heat_flux" NumberOfComponents="2" ComponentName0="0" ComponentName1="1" format="ascii" >
7.90913875 0 
7.69671706 0 
7.90913875 7.30309078e-16 
7.69671706 3.26921511e-16 
7.69671706 0 
7.29451907 0 
7.69671706 -6.19924475e-16 
7.29451907 4.16236373e-16 
7.29451907 0 
6.8036324 0 
7.29451907 -2.17806372e-16 
6.8036324 -2.91319026e-17 
6.8036324 0 
6.29352396 0 
6.8036324 -7.62764212e-16 
6.29352396 -3.17769471e-16 
6.29352396 0 
5.81112672 0 
6.29352396 5.40034995e-16 
5.81112672 3.66968942e-16 
5.81112672 0 
5.38751452 0 
5.81112672 -6.78788904e-16 
5.38751452 4.65889233e-16 
5.38751452 0 
5.04275589 0 
5.38751452 1.00109637e-15 
5.04275589 2.22708597e-16 
5.04275589 0 
4.78938511 0 
5.04275589 3.77463143e-17 
4.78938511 8.60751649e-16 
4.78938511 0 
4.63481104 0 
4.78938511 -3.53178069e-16 
4.63481104 -5.9421868e-16 
4.63481104 0 
4.58288971 0 
4.63481104 -1.56027461e-16 
4.58288971 9.02599437e-16 
7.90913875 7.30309078e-16 
7.69671706 3.26921511e-16 
7.90913875 1.40621636e-16 
7.69671706 3.96723692e-17 
7.69671706 -6.19924475e-16 
7.29451907 4.16236373e-16 
7.69671706 3.85031576e-16 
7.29451907 6.243298e-16 
7.29451907 -2.17806372e-16 
6.8036324 -2.91319026e-17 
7.29451907 -2.22874219e-16 
6.8036324 -4.49484093e-16 
6.8036324 -7.62764212e-16 
6.29352396 -3.17769471e-16 
6.8036324 -4.13658268e-16 
6.29352396 -1.16558639e-15 
6.29352396 5.40034995e-16 
5.81112672 3.66968942e-16 
6.29352396 -9.62409019e-17 
5.81112672 -3.88478638e-16 
5.81112672 -6.78788904e-16 
5.38751452 4.65889233e-16 
5.81112672 -1.53249975e-15 
5.38751452 2.13993785e-16 
5.38751452 1.00109637e-15 
5.04275589 2.22708597e-16 
5.38751452 1.3797707e-15 
5.04275589 2.9160483e-16 
5.04275589 3.77463143e-17 
4.78938511 8.60751649e-16 
5.04275589 2.40429036e-16 
4.78938511 6.78865472e-16 
4.78938511 -3.53178069e-16 
4.63481104 -5.9421868e-16 
4.78938511 1.76254928e-16 
4.63481104 -4.64427265e-16 
4.63481104 -1.56027461e-16 
4.58288971 9.02599437e-16 
4.63481104 -7.67821085e-17 
4.58288971 1.09979788e-15 
7.90913875 1.40621636e-16 
7.69671706 3.96723692e-17 
7.90913875 9.59490508e-16 
7.69671706 6.05489457e-16 
7.69671706 3.85031576e-16 
7.29451907 6.243298e-16 
7.69671706 1.02221512e-16 
7.29451907 3.29665315e-16 
7.29451907 -2.22874219e-16 
6.8036324 -4.49484093e-16 
7.29451907 -1.55103685e-15 
6.8036324 6.07142586e-16 
6.8036324 -4.13658268e-16 
6.29352396 -1.16558639e-15 
6.8036324 6.36489961e-16 
6.29352396 -1.91998614e-15 
6.29352396 -9.62409019e-17 
5.81112672 -3.88478638e-16 
6.29352396 7.21705971e-16 
5.81112672 -6.09150662e-16 
5.81112672 -1.53249975e-15 
5.38751452 2.13993785e-16 
5.81112672 -7.43450913e-16 
5.38751452 5.81160514e-16 
5.38751452 1.3797707e-15 
5.04275589 2.9160483e-16 
5.38751452 1.3354938e-15 
5.04275589 7.16048464e-16 
5.04275589 2.40429036e-16 
4.78938511 6.78865472e-16 
5.04275589 1.88062866e-16 
4.78938511 8.3769397e-16 
4.78938511 1.76254928e-16 
4.63481104 -4.64427265e-16 
4.78938511 4.92913396e-16 
4.63481104 -2.67287785e-16 
4.63481104 -7.67821085e-17 
4.58288971 1.09979788e-15 
4.63481104 1.87708463e-16 
4.58288971 1.34068547e-15 
7.90913875 9.59490508e-16 
7.69671706 6.05489457e-16 
7.90913875 -4.22587089e-16 
7.69671706 -4.15003125e-16 
7.69671706 1.02221512e-16 
7.29451907 3.29665315e-16 
7.69671706 -8.1541982e-16 
7.29451907 2.75693371e-16 
7.29451907 -1.55103685e-15 
6.8036324 6.07142586e-16 
7.29451907 -5.78619964e-16 
6.8036324 9.72163134e-16 
6.8036324 6.36489961e-16 
6.29352396 -1.91998614e-15 
6.8036324 9.59454959e-16 
6.29352396 -3.92201844e-16 
6.29352396 7.21705971e-16 
5.81112672 -6.09150662e-16 
6.29352396 -7.1067988e-16 
5.81112672 1.54752926e-16 
5.81112672 -7.43450913e-16 
5.38751452 5.81160514e-16 
5.81112672 -1.81263939e-15 
5.38751452 1.16573808e-16 
5.38751452 1.3354938e-15 
5.04275589 7.16048464e-16 
5.38751452 1.10210994e-15 
5.04275589 -6.60137327e-16 
5.04275589 1.88062866e-16 
4.78938511 8.3769397e-16 
5.04275589 9.75819686e-17 
4.78938511 1.10266439e-15 
4.78938511 4.92913396e-16 
4.63481104 -2.67287785e-16 
4.78938511 3.71575118e-16 
4.63481104 -3.60742217e-16 
4.63481104 1.87708463e-16 
4.58288971 1.34068547e-15 
4.63481104 -6.25069298e-17 
4.58288971 1.07922781e-15 
7.90913875 -4.22587089e-16 
7.69671706 -4.15003125e-16 
7.90913875 -2.12388876e-16 
7.69671706 1.38090406e-16 
7.69671706 -8.1541982e-16 
7.29451907 2.75693371e-16 
7.69671706 -3.77982786e-16 
7.29451907 3.74717574e-16 
7.29451907 -5.78619964e-16 
6.8036324 9.72163134e-16 
7.29451907 -3.15261058e-16 
6.8036324 1.26457584e-16 
6.8036324 9.59454959e-16 
6.29352396 -3.92201844e-16 
6.8036324 -4.59790502e-17 
6.29352396 -3.01316245e-16 
6.29352396 -7.1067988e-16 
5.81112672 1.54752926e-16 
6.29352396 6.32678728e-16 
5.81112672 1.06111167e-15 
5.81112672 -1.81263939e-15 
5.38751452 1.16573808e-16 
5.81112672 -2.27331371e-15 
5.38751452 3.8394895e-17 
5.38751452 1.10210994e-15 
5.04275589 -6.60137327e-16 
5.38751452 5.67877446e-16 
5.04275589 -3.09688325e-16 
5.04275589 9.75819686e-17 
4.78938511 1.10266439e-15 
5.04275589 -4.11813703e-16 
4.78938511 6.91857053e-16 
4.78938511 3.71575118e-16 
4.63481104 -3.60742217e-16 
4.78938511 4.16015666e-16 
4.63481104 -6.54741918e-16 
4.63481104 -6.25069298e-17 
4.58288971 1.07922781e-15 
4.63481104 7.38313356e-17 
4.58288971 1.23841714e-15 
7.90913875 -2.12388876e-16 
7.69671706 1.38090406e-16 
7.90913875 9.30212512e-16 
7.69671706 1.52600234e-15 
7.69671706 -3.77982786e-16 
7.29451907 3.74717574e-16 
7.69671706 -3.47319983e-16 
7.29451907 4.54738369e-16 
7.29451907 -3.15261058e-16 
6.8036324 1.26457584e-16 
7.29451907 -1.62814537e-16 
6.8036324 6.48041279e-16 
6.8036324 -4.59790502e-17 
6.29352396 -3.01316245e-16 
6.8036324 1.20497578e-15 
6.29352396 -8.67274835e-16 
6.29352396 6.32678728e-16 
5.81112672 1.06111167e-15 
6.29352396 -1.05041681e-17 
5.81112672 6.23451817e-16 
5.81112672 -2.27331371e-15 
5.38751452 3.8394895e-17 
5.81112672 -1.31469316e-15 
5.38751452 5.77151675e-16 
5.38751452 5.67877446e-16 
5.04275589 -3.09688325e-16 
5.38751452 1.10850265e-15 
5.04275589 -7.07058146e-16 
5.04275589 -4.11813703e-16 
4.78938511 6.91857053e-16 
5.04275589 -5.71536791e-16 
4.78938511 9.90745001e-16 
4.78938511 4.16015666e-16 
4.63481104 -6.54741918e-16 
4.78938511 3.32809884e-16 
4.63481104 -8.33920968e-16 
4.63481104 7.38313356e-17 
4.58288971 1.23841714e-15 
4.63481104 4.84813662e-16 
4.58288971 1.62276875e-15 
7.90913875 9.30212512e-16 
7.69671706 1.52600234e-15 
7.90913875 -4.4324191e-16 
7.69671706 8.93092093e-16 
7.69671706 -3.47319983e-16 
7.29451907 4.54738369e-16 
7.69671706 -1.16354461e-15 
7.29451907 3.49254172e-16 
7.29451907 -1.62814537e-16 
6.8036324 6.48041279e-16 
7.29451907 -9.76695424e-16 
6.8036324 6.3451815e-16 
6.8036324 1.20497578e-15 
6.29352396 -8.67274835e-16 
6.8036324 5.37960839e-16 
6.29352396 9.25903417e-16 
6.29352396 -1.05041681e-17 
5.81112672 6.23451817e-16 
6.29352396 -6.80455606e-16 
5.81112672 1.54257791e-15 
5.81112672 -1.31469316e-15 
5.38751452 5.77151675e-16 
5.81112672 -1.83264243e-15 
5.38751452 7.51192999e-16 
5.38751452 1.10850265e-15 
5.04275589 -7.07058146e-16 
5.38751452 2.23570171e-16 
5.04275589 -6.94982701e-16 
5.04275589 -5.71536791e-16 
4.78938511 9.90745001e-16 
5.04275589 -9.91486106e-16 
4.78938511 5.48673844e-16 
4.78938511 3.32809884e-16 
4.63481104 -8.33920968e-16 
4.78938511 2.10646464e-16 
4.63481104 -6.99604795e-16 
4.63481104 4.84813662e-16 
4.58288971 1.62276875e-15 
4.63481104 -1.36999535e-16 
4.58288971 1.0552275e-15 
7.90913875 -4.4324191e-16 
7.69671706 8.93092093e-16 
7.90913875 -7.23812621e-16 
7.69671706 -9.48542147e-16 
7.69671706 -1.16354461e-15 
7.29451907 3.49254172e-16 
7.69671706 -1.19854355e-15 
7.29451907 1.41843905e-15 
7.29451907 -9.76695424e-16 
6.8036324 6.3451815e-16 
7.29451907 -8.97042653e-16 
6.8036324 -8.32257443e-16 
6.8036324 5.37960839e-16 
6.29352396 9.25903417e-16 
6.8036324 3.60226111e-16 
6.29352396 -1.30091041e-15 
6.29352396 -6.80455606e-16 
5.81112672 1.54257791e-15 
6.29352396 -3.93565864e-16 
5.81112672 8.902291e-16 
5.81112672 -1.83264243e-15 
5.38751452 7.51192999e-16 
5.81112672 -1.88520815e-15 
5.38751452 8.62056189e-16 
5.38751452 2.23570171e-16 
5.04275589 -6.94982701e-16 
5.38751452 6.07712658e-16 
5.04275589 -7.29474918e-16 
5.04275589 -9.91486106e-16 
4.78938511 5.48673844e-16 
5.04275589 -9.69686571e-17 
4.78938511 6.27469707e-16 
4.78938511 2.10646464e-16 
4.63481104 -6.99604795e-16 
4.78938511 -4.74491257e-16 
4.63481104 -1.1885853e-15 
4.63481104 -1.36999535e-16 
4.58288971 1.0552275e-15 
4.63481104 -4.10842753e-16 
4.58288971 7.82528857e-16 
7.90913875 -7.23812621e-16 
7.69671706 -9.48542147e-16 
7.90913875 4.88229632e-16 
7.69671706 3.72393479e-16 
7.69671706 -1.19854355e-15 
7.29451907 1.41843905e-15 
7.69671706 -1.2790045e-16 
7.29451907 1.26384042e-15 
7.29451907 -8.97042653e-16 
6.8036324 -8.32257443e-16 
7.29451907 -1.11038878e-15 
6.8036324 -3.26523037e-16 
6.8036324 3.60226111e-16 
6.29352396 -1.30091041e-15 
6.8036324 1.13348639e-15 
6.29352396 1.09881405e-17 
6.29352396 -3.93565864e-16 
5.81112672 8.902291e-16 
6.29352396 -8.44282161e-16 
5.81112672 -8.86711358e-16 
5.81112672 -1.88520815e-15 
5.38751452 8.62056189e-16 
5.81112672 -1.56479778e-15 
5.38751452 6.68638007e-16 
5.38751452 6.07712658e-16 
5.04275589 -7.29474918e-16 
5.38751452 7.03548072e-16 
5.04275589 -6.75023984e-16 
5.04275589 -9.69686571e-17 
4.78938511 6.27469707e-16 
5.04275589 -2.30485693e-16 
4.78938511 6.09282024e-17 
4.78938511 -4.74491257e-16 
4.63481104 -1.1885853e-15 
4.78938511 -2.84653896e-16 
4.63481104 -8.30162602e-16 
4.63481104 -4.10842753e-16 
4.58288971 7.82528857e-16 
4.63481104 -1.3729372e-16 
4.58288971 7.59453958e-16 
7.90913875 4.88229632e-16 
7.69671706 3.72393479e-16 
7.90913875 0 
7.69671706 0 
7.69671706 -1.2790045e-16 
7.29451907 1.26384042e-15 
7.69671706 0 
7.29451907 0 
7.29451907 -1.11038878e-15 
6.8036324 -3.26523037e-16 
7.29451907 0 
6.8036324 0 
6.8036324 1.13348639e-15 
6.29352396 1.09881405e-17 
6.8036324 0 
6.29352396 0 
6.29352396 -8.44282161e-16 
5.81112672 -8.86711358e-16 
6.29352396 0 
5.81112672 0 
5.81112672 -1.56479778e-15 
5.38751452 6.68638007e-16 
5.81112672 0 
5.38751452 0 
5.38751452 7.03548072e-16 
5.04275589 -6.75023984e-16 
5.38751452 0 
5.04275589 0 
5.04275589 -2.30485693e-16 
4.78938511 6.09282024e-17 
5.04275589 0 
4.78938511 0 
4.78938511 -2.84653896e-16 
4.63481104 -8.30162602e-16 
4.78938511 0 
4.63481104 0 
4.63481104 -1.3729372e-16 
4.58288971 7.59453958e-16 
4.63481104 0 
4.58288971 0 
</DataArray>
<DataArray type="Float64" Name="temperature" NumberOfComponents="1"  format="ascii" >
0.93320542
0.93320542
0.93320542
0.93320542
0.804136068
0.804136068
0.804136068
0.804136068
0.682191214
0.682191214
0.682191214
0.682191214
0.56871725
0.56871725
0.56871725
0.56871725
0.463940647
0.463940647
0.463940647
0.463940647
0.367333473
0.367333473
0.367333473
0.367333473
0.277870121
0.277870121
0.277870121
0.277870121
0.194204972
0.194204972
0.194204972
0.194204972
0.11479354
0.11479354
0.11479354
0.11479354
0.0379744087
0.0379744087
0.0379744087
0.0379744087
0.93320542
0.93320542
0.93320542
0.93320542
0.804136068
0.804136068
0.804136068
0.804136068
0.682191214
0.682191214
0.682191214
0.682191214
0.56871725
0.56871725
0.56871725
0.56871725
0.463940647
0.463940647
0.463940647
0.463940647
0.367333473
0.367333473
0.367333473
0.367333473
0.277870121
0.277870121
0.277870121
0.277870121
0.194204972
0.194204972
0.194204972
0.194204972
0.11479354
0.11479354
0.11479354
0.11479354
0.0379744087
0.0379744087
0.0379744087
0.0379744087
0.93320542
0.93320542
0.93320542
0.93320542
0.804136068
0.804136068
0.804136068
0.804136068
0.682191214
0.682191214
0.682191214
0.682191214
0.56871725
0.56871725
0.56871725
0.56871725
0.463940647
0.463940647
0.463940647
0.463940647
0.367333473
0.367333473
0.367333473
0.367333473
0.277870121
0.277870121
0.277870121
0.277870121
0.194204972
0.194204972
0.194204972
0.194204972
0.11479354
0.11479354
0.11479354
0.11479354
0.0379744087
0.0379744087
0.0379744087
0.0379744087
0.93320542
0.93320542
0.93320542
0.93320542
0.804136068
0.804136068
0.804136068
0.804136068
0.682191214
0.682191214
0.682191214
0.682191214
0.56871725
0.56871725
0.56871725
0.56871725
0.463940647
0.463940647
0.463940647
0.463940647
0.367333473
0.367333473
0.367333473
0.367333473
0.277870121
0.277870121
0.277870121
0.277870121
0.194204972
0.194204972
0.194204972
0.194204972
0.11479354
0.11479354
0.11479354
0.11479354
0.0379744087
0.0379744087
0.0379744087
0.0379744087
0.93320542
0.93320542
0.93320542
0.93320542
0.804136068
0.804136068
0.804136068
0.804136068
0.682191214
0.682191214
0.682191214
0.682191214
0.56871725
0.56871725
0.56871725
0.56871725
0.463940647
0.463940647
0.463940647
0.463940647
0.367333473
0.367333473
0.367333473
0.367333473
0.277870121
0.277870121
0.277870121
0.277870121
0.194204972
0.194204972
0.194204972
0.194204972
0.11479354
0.11479354
0.11479354
0.11479354
0.0379744087
0.0379744087
0.0379744087
0.0379744087
0.93320542
0.93320542
0.93320542
0.93320542
0.804136068
0.804136068
0.804136068
0.804136068
0.682191214
0.682191214
0.682191214
0.682191214
0.56871725
0.56871725
0.56871725
0.56871725
0.463940647
0.463940647
0.463940647
0.463940647
0.367333473
0.367333473
0.367333473
0.367333473
0.277870121
0.277870121
0.277870121
0.277870121
0.194204972
0.194204972
0.194204972
0.194204972
0.11479354
0.11479354
0.11479354
0.11479354
0.0379744087
0.0379744087
0.0379744087
0.0379744087
0.93320542
0.93320542
0.93320542
0.93320542
0.804136068
0.804136068
0.804136068
0.804136068
0.682191214
0.682191214
0.682191214
0.682191214
0.56871725
0.56871725
0.56871725
0.56871725
0.463940647
0.463940647
0.463940647
0.463940647
0.367333473
0.367333473
0.367333473
0.367333473
0.277870121
0.277870121
0.277870121
0.277870121
0.194204972
0.194204972
0.194204972
0.194204972
0.11479354
0.11479354
0.11479354
0.11479354
0.0379744087
0.0379744087
0.0379744087
0.0379744087
0.93320542
0.93320542
0.93320542
0.93320542
0.804136068
0.804136068
0.804136068
0.804136068
0.682191214
0.682191214
0.682191214
0.682191214
0.56871725
0.56871725
0.56871725
0.56871725
0.463940647
0.463940647
0.463940647
0.463940647
0.367333473
0.367333473
0.367333473
0.367333473
0.277870121
0.277870121
0.277870121
0.277870121
0.194204972
0.194204972
0.194204972
0.194204972
0.11479354
0.11479354
0.11479354
0.11479354
0.0379744087
0.0379744087
0.0379744087
0.0379744087
0.93320542
0.93320542
0.93320542
0.93320542
0.804136068
0.804136068
0.804136068
0.804136068
0.682191214
0.682191214
0.682191214
0.682191214
0.56871725
0.56871725
0.56871725
0.56871725
0.463940647
0.463940647
0.463940647
0.463940647
0.367333473
0.367333473
0.367333473
0.367333473
0.277870121
0.277870121
0.277870121
0.277870121
0.194204972
0.194204972
0.194204972
0.194204972
0.11479354
0.11479354
0.11479354
0.11479354
0.0379744087
0.0379744087
0.0379744087
0.0379744087
0.93320542
0.93320542
0.93320542
0.93320542
0.804136068
0.804136068
0.804136068
0.804136068
0.682191214
0.682191214
0.682191214
0.682191214
0.56871725
0.56871725
0.56871725
0.56871725
0.463940647
0.463940647
0.463940647
0.463940647
0.367333473
0.367333473
0.367333473
0.367333473
0.277870121
0.277870121
0.277870121
0.277870121
0.194204972
0.194204972
0.194204972
0.194204972
0.11479354
0.11479354
0.11479354
0.11479354
0.0379744087
0.0379744087
0.0379744087
0.0379744087
</DataArray>
<DataArray type="Float64" Name="time_integrated_heat_flux" NumberOfComponents="2" ComponentName0="0" ComponentName1="1" format="ascii" >
0.663676138 0 
0.570355596 0 
0.663676138 7.07800209e-18 
0.570355596 6.07960034e-17 
0.570355596 0 
0.48994199 0 
0.570355596 -1.62408917e-17 
0.48994199 8.40933654e-18 
0.48994199 0 
0.421722868 0 
0.48994199 -1.16016852e-16 
0.421722868 4.49376818e-17 
0.421722868 0 
0.364851143 0 
0.421722868 -1.04235322e-17 
0.364851143 -2.00887172e-19 
0.364851143 0 
0.318457079 0 
0.364851143 1.82122871e-17 
0.318457079 9.09829981e-18 
0.318457079 0 
0.281723731 0 
0.318457079 -4.77894419e-17 
0.281723731 2.85314794e-17 
0.281723731 0 
0.253936719 0 
0.281723731 3.37017467e-17 
0.253936719 -1.62696586e-18 
0.253936719 0 
0.234516222 0 
0.253936719 -6.21917344e-18 
0.234516222 3.53512889e-17 
0.234516222 0 
0.223036868 0 
0.234516222 1.45702178e-18 
0.223036868 -5.11373951e-17 
0.223036868 0 
0.219239427 0 
0.223036868 -5.0206643e-18 
0.219239427 3.92671823e-17 
0.663676138 7.07800209e-18 
0.570355596 6.07960034e-17 
0.663676138 1.09948743e-17 
0.570355596 -1.84372299e-17 
0.570355596 -1.62408917e-17 
0.48994199 8.40933654e-18 
0.570355596 2.97081814e-17 
0.48994199 -6.79096521e-18 
0.48994199 -1.16016852e-16 
0.421722868 4.49376818e-17 
0.48994199 -3.53258527e-17 
0.421722868 -2.04365652e-17 
0.421722868 -1.04235322e-17 
0.364851143 -2.00887172e-19 
0.421722868 -3.08856502e-17 
0.364851143 -8.4274753e-18 
0.364851143 1.82122871e-17 
0.318457079 9.09829981e-18 
0.364851143 1.51102812e-17 
0.318457079 -5.0189853e-17 
0.318457079 -4.77894419e-17 
0.281723731 2.85314794e-17 
0.318457079 -8.51228577e-17 
0.281723731 1.10252516e-17 
0.281723731 3.37017467e-17 
0.253936719 -1.62696586e-18 
0.281723731 8.35265695e-17 
0.253936719 7.36314291e-18 
0.253936719 -6.21917344e-18 
0.234516222 3.53512889e-17 
0.253936719 5.43417057e-18 
0.234516222 2.77880338e-17 
0.234516222 1.45702178e-18 
0.223036868 -5.11373951e-17 
0.234516222 2.97719363e-17 
0.223036868 -3.4858176e-17 
0.223036868 -5.0206643e-18 
0.219239427 3.92671823e-17 
0.223036868 6.79831944e-19 
0.219239427 5.70588939e-17 
0.663676138 1.09948743e-17 
0.570355596 -1.84372299e-17 
0.663676138 1.9599318e-17 
0.570355596 1.96254518e-16 
0.570355596 2.97081814e-17 
0.48994199 -6.79096521e-18 
0.570355596 -8.32025757e-17 
0.48994199 2.18239038e-17 
0.48994199 -3.53258527e-17 
0.421722868 -2.04365652e-17 
0.48994199 -1.31709865e-16 
0.421722868 9.54301386e-17 
0.421722868 -3.08856502e-17 
0.364851143 -8.4274753e-18 
0.421722868 5.19767934e-17 
0.364851143 -7.20084516e-17 
0.364851143 1.51102812e-17 
0.318457079 -5.0189853e-17 
0.364851143 -8.3046195e-18 
0.318457079 1.22093813e-17 
0.318457079 -8.51228577e-17 
0.281723731 1.10252516e-17 
0.318457079 -8.36134619e-17 
0.281723731 5.91707814e-18 
0.281723731 8.35265695e-17 
0.253936719 7.36314291e-18 
0.281723731 7.91269739e-17 
0.253936719 2.07567976e-17 
0.253936719 5.43417057e-18 
0.234516222 2.77880338e-17 
0.253936719 8.45543808e-18 
0.234516222 4.36950919e-17 
0.234516222 2.97719363e-17 
0.223036868 -3.4858176e-17 
0.234516222 3.29905771e-17 
0.223036868 -4.34821439e-17 
0.223036868 6.79831944e-19 
0.219239427 5.70588939e-17 
0.223036868 1.59158544e-18 
0.219239427 6.22166296e-17 
0.663676138 1.9599318e-17 
0.570355596 1.96254518e-16 
0.663676138 -4.57175753e-17 