<VTKFile type="UnstructuredGrid" version="2.2" byte_order="LittleEndian">
<UnstructuredGrid>
<Piece NumberOfPoints="100" NumberOfCells="25">
<Points>
<DataArray type="Float64" NumberOfComponents="3" format="ascii">
0 0 0
0.1 0 0
0 0.1 0
0.1 0.1 0
0.1 0 0
0.2 0 0
0.1 0.1 0
0.2 0.1 0
0.2 0 0
0.3 0 0
0.2 0.1 0
0.3 0.1 0
0.3 0 0
0.4 0 0
0.3 0.1 0
0.4 0.1 0
0.4 0 0
0.5 0 0
0.4 0.1 0
0.5 0.1 0
0 0.1 0
0.1 0.1 0
0 0.2 0
0.1 0.2 0
0.1 0.1 0
0.2 0.1 0
0.1 0.2 0
0.2 0.2 0
0.2 0.1 0
0.3 0.1 0
0.2 0.2 0
0.3 0.2 0
0.3 0.1 0
0.4 0.1 0
0.3 0.2 0
0.4 0.2 0
0.4 0.1 0
0.5 0.1 0
0.4 0.2 0
0.5 0.2 0
0 0.2 0
0.1 0.2 0
0 0.3 0
0.1 0.3 0
0.1 0.2 0
0.2 0.2 0
0.1 0.3 0
0.2 0.3 0
0.2 0.2 0
0.3 0.2 0
0.2 0.3 0
0.3 0.3 0
0.3 0.2 0
0.4 0.2 0
0.3 0.3 0
0.4 0.3 0
0.4 0.2 0
0.5 0.2 0
0.4 0.3 0
0.5 0.3 0
0 0.3 0
0.1 0.3 0
0 0.4 0
0.1 0.4 0
0.1 0.3 0
0.2 0.3 0
0.1 0.4 0
0.2 0.4 0
0.2 0.3 0
0.3 0.3 0
0.2 0.4 0
0.3 0.4 0
0.3 0.3 0
0.4 0.3 0
0.3 0.4 0
0.4 0.4 0
0.4 0.3 0
0.5 0.3 0
0.4 0.4 0
0.5 0.4 0
0 0.4 0
0.1 0.4 0
0 0.5 0
0.1 0.5 0
0.1 0.4 0
0.2 0.4 0
0.1 0.5 0
0.2 0.5 0
0.2 0.4 0
0.3 0.4 0
0.2 0.5 0
0.3 0.5 0
0.3 0.4 0
0.4 0.4 0
0.3 0.5 0
0.4 0.5 0
0.4 0.4 0
0.5 0.4 0
0.4 0.5 0
0.5 0.5 0
</DataArray>
</Points>
<Cells>
<DataArray type="Int32" Name="connectivity" format="ascii">
0 1 3 2 
4 5 7 6 
8 9 11 10 
12 13 15 14 
16 17 19 18 
20 21 23 22 
24 25 27 26 
28 29 31 30 
32 33 35 34 
36 37 39 38 
40 41 43 42 
44 45 47 46 
48 49 51 50 
52 53 55 54 
56 57 59 58 
60 61 63 62 
64 65 67 66 
68 69 71 70 
72 73 75 74 
76 77 79 78 
80 81 83 82 
84 85 87 86 
88 89 91 90 
92 93 95 94 
96 97 99 98 
</DataArray>
<DataArray type="Int32" Name="offsets" format="ascii">
4
8
12
16
20
24
28
32
36
40
44
48
52
56
60
64
68
72
76
80
84
88
92
96
100
</DataArray>
<DataArray type="UInt8" Name="types" format="ascii">
9
9
9
9
9
9
9
9
9
9
9
9
9
9
9
9
9
9
9
9
9
9
9
9
9
</DataArray>
</Cells>
<CellData Scalars="attribute">
<DataArray type="Int32" Name="attribute" format="ascii">
1
1
1
1
1
1
1
1
1
1
1
1
1
1
1
1
1
1
1
1
1
1
1
1
1
</DataArray>
</CellData>
<PointData >
<DataArray type="Float64" Name="div_heat_flux" NumberOfComponents="1"  format="ascii" >
-2.12421697
-2.12421697
-2.12421697
-2.12421697
-4.02197984
-4.02197984
-4.02197984
-4.02197984
-4.90886676
-4.90886676
-4.90886676
-4.90886676
-5.10108434
-5.10108434
-5.10108434
-5.10108434
-4.82397245
-4.82397245
-4.82397245
-4.82397245
-2.12421697
-2.12421697
-2.12421697
-2.12421697
-4.02197984
-4.02197984
-4.02197984
-4.02197984
-4.90886676
-4.90886676
-4.90886676
-4.90886676
-5.10108434
-5.10108434
-5.10108434
-5.10108434
-4.82397245
-4.82397245
-4.82397245
-4.82397245
-2.12421697
-2.12421697
-2.12421697
-2.12421697
-4.02197984
-4.02197984
-4.02197984
-4.02197984
-4.90886676
-4.90886676
-4.90886676
-4.90886676
-5.10108434
-5.10108434
-5.10108434
-5.10108434
-4.82397245
-4.82397245
-4.82397245
-4.82397245
-2.12421697
-2.12421697
-2.12421697
-2.12421697
-4.02197984
-4.02197984
-4.02197984
-4.02197984
-4.90886676
-4.90886676
-4.90886676
-4.90886676
-5.10108434
-5.10108434
-5.10108434
-5.10108434
-4.82397245
-4.82397245
-4.82397245
-4.82397245
-2.12421697
-2.12421697
-2.12421697
-2.12421697
-4.02197984
-4.02197984
-4.02197984
-4.02197984
-4.90886676
-4.90886676
-4.90886676
-4.90886676
-5.10108434
-5.10108434
-5.10108434
-5.10108434
-4.82397245
-4.82397245
-4.82397245
-4.82397245
</DataArray>
<DataArray type="Float64" Name="dtemperature_dt" NumberOfComponents="1"  format="ascii" >
2.12421697
2.12421697
2.12421697
2.12421697
4.02197984
4.02197984
4.02197984
4.02197984
4.90886676
4.90886676
4.90886676
4.90886676
5.10108434
5.10108434
5.10108434
5.10108434
4.82397245
4.82397245
4.82397245
4.82397245
2.12421697
2.12421697
2.12421697
2.12421697
4.02197984
4.02197984
4.02197984
4.02197984
4.90886676
4.90886676
4.90886676
4.90886676
5.10108434
5.10108434
5.10108434
5.10108434
4.82397245
4.82397245
4.82397245
4.82397245
2.12421697
2.12421697
2.12421697
2.12421697
4.02197984
4.02197984
4.02197984
4.02197984
4.90886676
4.90886676
4.90886676
4.90886676
5.10108434
5.10108434
5.10108434
5.10108434
4.82397245
4.82397245
4.82397245
4.82397245
2.12421697
2.12421697
2.12421697
2.12421697
4.02197984
4.02197984
4.02197984
4.02197984
4.90886676
4.90886676
4.90886676
4.90886676
5.10108434
5.10108434
5.10108434
5.10108434
4.82397245
4.82397245
4.82397245
4.82397245
2.12421697
2.12421697
2.12421697
2.12421697
4.02197984
4.02197984
4.02197984
4.02197984
4.90886676
4.90886676
4.90886676
4.90886676
5.10108434
5.10108434
5.10108434
5.10108434
4.82397245
4.82397245
4.82397245
4.82397245
</DataArray>
<DataArray type="Float64" Name="heat_flux" NumberOfComponents="2" ComponentName0="0" ComponentName1="1" format="ascii" >
7.90913875 0 
7.69671706 0 
7.90913875 5.40799649e-16 
7.69671706 1.64142615e-16 
7.69671706 0 
7.29451907 0 
7.69671706 -6.81969288e-16 
7.29451907 -4.79199101e-16 
7.29451907 0 
6.8036324 0 
7.29451907 -1.11999784e-16 
6.8036324 -6.85328518e-16 
6.8036324 0 
6.29352396 0 
6.8036324 4.54179025e-16 
6.29352396 -8.49824236e-16 
6.29352396 0 
5.81112672 0 
6.29352396 -7.69693144e-16 
5.81112672 3.103228e-16 
7.90913875 5.40799649e-16 
7.69671706 1.64142615e-16 
7.90913875 -6.72481121e-17 
7.69671706 -1.033967e-16 
7.69671706 -6.81969288e-16 
7.29451907 -4.79199101e-16 
7.69671706 -7.06751061e-16 
7.29451907 2.87021219e-16 
7.29451907 -1.11999784e-16 
6.8036324 -6.85328518e-16 
7.29451907 3.72758111e-16 
6.8036324 1.77815129e-16 
6.8036324 4.54179025e-16 
6.29352396 -8.49824236e-16 
6.8036324 8.42304263e-16 
6.29352396 -1.71102961e-15 
6.29352396 -7.69693144e-16 
5.81112672 3.103228e-16 
6.29352396 -6.69370479e-16 
5.81112672 -5.30377668e-16 
7.90913875 -6.72481121e-17 
7.69671706 -1.033967e-16 
7.90913875 8.71224251e-16 
7.69671706 7.45944844e-16 
7.69671706 -7.06751061e-16 
7.29451907 2.87021219e-16 
7.69671706 8.30270712e-17 
7.29451907 7.59666053e-16 
7.29451907 3.72758111e-16 
6.8036324 1.77815129e-16 
7.29451907 -1.36147378e-15 
6.8036324 -1.94925326e-15 
6.8036324 8.42304263e-16 
6.29352396 -1.71102961e-15 
6.8036324 -6.88644648e-16 
6.29352396 -2.55009745e-15 
6.29352396 -6.69370479e-16 
5.81112672 -5.30377668e-16 
6.29352396 -8.64245977e-16 
5.81112672 7.2241371e-18 
7.90913875 8.71224251e-16 
7.69671706 7.45944844e-16 
7.90913875 -2.40303131e-16 
7.69671706 -2.33353033e-16 
7.69671706 8.30270712e-17 
7.29451907 7.59666053e-16 
7.69671706 -1.1442361e-15 
7.29451907 9.61584955e-16 
7.29451907 -1.36147378e-15 
6.8036324 -1.94925326e-15 
7.29451907 -1.400742e-16 
6.8036324 -7.74440456e-16 
6.8036324 -6.88644648e-16 
6.29352396 -2.55009745e-15 
6.8036324 -3.06292282e-16 
6.29352396 -2.20912127e-16 
6.29352396 -8.64245977e-16 
5.81112672 7.2241371e-18 
6.29352396 -9.45143352e-16 
5.81112672 1.00885131e-16 
7.90913875 -2.40303131e-16 
7.69671706 -2.33353033e-16 
7.90913875 3.48507022e-16 
7.69671706 3.47230608e-16 
7.69671706 -1.1442361e-15 
7.29451907 9.61584955e-16 
7.69671706 -9.36824409e-16 
7.29451907 1.55976001e-15 
7.29451907 -1.400742e-16 
6.8036324 -7.74440456e-16 
7.29451907 9.38308474e-16 
6.8036324 -1.79708925e-16 
6.8036324 -3.06292282e-16 
6.29352396 -2.20912127e-16 
6.8036324 8.82195512e-16 
6.29352396 -5.0054208e-16 
6.29352396 -9.45143352e-16 
5.81112672 1.00885131e-16 
6.29352396 8.29689534e-16 
5.81112672 -3.26186586e-16 
</DataArray>
<DataArray type="Float64" Name="temperature" NumberOfComponents="1"  format="ascii" >
0.93320542
0.93320542
0.93320542
0.93320542
0.804136068
0.804136068
0.804136068
0.804136068
0.682191214
0.682191214
0.682191214
0.682191214
0.56871725
0.56871725
0.56871725
0.56871725
0.463940647
0.463940647
0.463940647
0.463940647
0.93320542
0.93320542
0.93320542
0.93320542
0.804136068
0.804136068
0.804136068
0.804136068
0.682191214
0.682191214
0.682191214
0.682191214
0.56871725
0.56871725
0.56871725
0.56871725
0.463940647
0.463940647
0.463940647
0.463940647
0.93320542
0.93320542
0.93320542
0.93320542
0.804136068
0.804136068
0.804136068
0.804136068
0.682191214
0.682191214
0.682191214
0.682191214
0.56871725
0.56871725
0.56871725
0.56871725
0.463940647
0.463940647
0.463940647
0.463940647
0.93320542
0.93320542
0.93320542
0.93320542
0.804136068
0.804136068
0.804136068
0.804136068
0.682191214
0.682191214
0.682191214
0.682191214
0.56871725
0.56871725
0.56871725
0.56871725
0.463940647
0.463940647
0.463940647
0.463940647
0.93320542
0.93320542
0.93320542
0.93320542
0.804136068
0.804136068
0.804136068
0.804136068
0.682191214
0.682191214
0.682191214
0.682191214
0.56871725
0.56871725
0.56871725
0.56871725
0.463940647
0.463940647
0.463940647
0.463940647
</DataArray>
<DataArray type="Float64" Name="time_integrated_heat_flux" NumberOfComponents="2" ComponentName0="0" ComponentName1="1" format="ascii" >
0.663676138 0 
0.570355596 0 
0.663676138 3.01136292e-17 
0.570355596 7.56646856e-17 
0.570355596 0 
0.48994199 0 
0.570355596 -9.35818032e-17 
0.48994199 -6.78702225e-17 
0.48994199 0 
0.421722868 0 
0.48994199 -4.86199417e-17 
0.421722868 -7.79941232e-17 
0.421722868 0 
0.364851143 0 
0.421722868 3.02566985e-17 
0.364851143 -3.69695904e-17 
0.364851143 0 
0.318457079 0 
0.364851143 -5.13575887e-18 
0.318457079 -1.24940844e-17 
0.663676138 3.01136292e-17 
0.570355596 7.56646856e-17 
0.663676138 -7.352325e-17 
0.570355596 7.10806403e-17 
0.570355596 -9.35818032e-17 
0.48994199 -6.78702225e-17 
0.570355596 -9.65723574e-17 
0.48994199 5.10116619e-17 
0.48994199 -4.86199417e-17 
0.421722868 -7.79941232e-17 
0.48994199 -2.13958531e-17 
0.421722868 5.82322077e-17 
0.421722868 3.02566985e-17 
0.364851143 -3.69695904e-17 
0.421722868 1.09768266e-17 
0.364851143 -1.16100569e-16 
0.364851143 -5.13575887e-18 
0.318457079 -1.24940844e-17 
0.364851143 -5.25556796e-17 
0.318457079 -6.50613512e-17 
0.663676138 -7.352325e-17 
0.570355596 7.10806403e-17 
0.663676138 1.18019036e-16 
0.570355596 7.5622394e-17 
0.570355596 -9.65723574e-17 
0.48994199 5.10116619e-17 
0.570355596 1.83391258e-17 
0.48994199 -5.68766526e-17 
0.48994199 -2.13958531e-17 
0.421722868 5.82322077e-17 
0.48994199 -1.15210041e-18 
0.421722868 -1.15592316e-17 
0.421722868 1.09768266e-17 
0.364851143 -1.16100569e-16 
0.421722868 2.92684666e-17 
0.364851143 -1.62928466e-16 
0.364851143 -5.25556796e-17 
0.318457079 -6.50613512e-17 
0.364851143 -2.60109341e-17 
0.318457079 -2.11503717e-17 
0.663676138 1.18019036e-16 
0.570355596 7.5622394e-17 
0.663676138 5.83594275e-18 
0.570355596 1.96797173e-17 
0.570355596 1.83391258e-17 
0.48994199 -5.68766526e-17 
0.570355596 -7.15899033e-17 
0.48994199 8.30340066e-17 
0.48994199 -1.15210041e-18 
0.421722868 -1.15592316e-17 
0.48994199 -8.40095544e-17 
0.421722868 1.23202939e-18 
0.421722868 2.92684666e-17 
0.364851143 -1.62928466e-16 
0.421722868 -2.28337247e-17 
0.364851143 -3.28347081e-17 
0.364851143 -2.60109341e-17 
0.318457079 -2.11503717e-17 
0.364851143 -3.11522289e-17 
0.318457079 1.15296192e-18 
0.663676138 5.83594275e-18 
0.570355596 1.96797173e-17 
0.663676138 8.90620737e-17 
0.570355596 7.40290917e-17 
0.570355596 -7.15899033e-17 
0.48994199 8.30340066e-17 
0.570355596 -8.15965376e-17 
0.48994199 8.77403677e-17 
0.48994199 -8.40095544e-17 
0.421722868 1.23202939e-18 
0.48994199 3.06935603e-17 
0.421722868 3.25314376e-17 
0.421722868 -2.28337247e-17 
0.364851143 -3.28347081e-17 
0.421722868 -8.08301577e-17 
0.364851143 6.69315245e-17 
0.364851143 -3.11522289e-17 
0.318457079 1.15296192e-18 
0.364851143 4.19679815e-17 
0.318457079 -4.09614907e-17 
</DataArray>
</PointData>
</Piece>
</UnstructuredGrid>
</VTKFile>
