<VTKFile type="UnstructuredGrid" version="2.2" byte_order="LittleEndian">
<UnstructuredGrid>
<Piece NumberOfPoints="100" NumberOfCells="25">
<Points>
<DataArray type="Float64" NumberOfComponents="3" format="ascii">
0.5 0.5 0
0.6 0.5 0
0.5 0.6 0
0.6 0.6 0
0.6 0.5 0
0.7 0.5 0
0.6 0.6 0
0.7 0.6 0
0.7 0.5 0
0.8 0.5 0
0.7 0.6 0
0.8 0.6 0
0.8 0.5 0
0.9 0.5 0
0.8 0.6 0
0.9 0.6 0
0.9 0.5 0
1 0.5 0
0.9 0.6 0
1 0.6 0
0.5 0.6 0
0.6 0.6 0
0.5 0.7 0
0.6 0.7 0
0.6 0.6 0
0.7 0.6 0
0.6 0.7 0
0.7 0.7 0
0.7 0.6 0
0.8 0.6 0
0.7 0.7 0
0.8 0.7 0
0.8 0.6 0
0.9 0.6 0
0.8 0.7 0
0.9 0.7 0
0.9 0.6 0
1 0.6 0
0.9 0.7 0
1 0.7 0
0.5 0.7 0
0.6 0.7 0
0.5 0.8 0
0.6 0.8 0
0.6 0.7 0
0.7 0.7 0
0.6 0.8 0
0.7 0.8 0
0.7 0.7 0
0.8 0.7 0
0.7 0.8 0
0.8 0.8 0
0.8 0.7 0
0.9 0.7 0
0.8 0.8 0
0.9 0.8 0
0.9 0.7 0
1 0.7 0
0.9 0.8 0
1 0.8 0
0.5 0.8 0
0.6 0.8 0
0.5 0.9 0
0.6 0.9 0
0.6 0.8 0
0.7 0.8 0
0.6 0.9 0
0.7 0.9 0
0.7 0.8 0
0.8 0.8 0
0.7 0.9 0
0.8 0.9 0
0.8 0.8 0
0.9 0.8 0
0.8 0.9 0
0.9 0.9 0
0.9 0.8 0
1 0.8 0
0.9 0.9 0
1 0.9 0
0.5 0.9 0
0.6 0.9 0
0.5 1 0
0.6 1 0
0.6 0.9 0
0.7 0.9 0
0.6 1 0
0.7 1 0
0.7 0.9 0
0.8 0.9 0
0.7 1 0
0.8 1 0
0.8 0.9 0
0.9 0.9 0
0.8 1 0
0.9 1 0
0.9 0.9 0
1 0.9 0
0.9 1 0
1 1 0
</DataArray>
</Points>
<Cells>
<DataArray type="Int32" Name="connectivity" format="ascii">
0 1 3 2 
4 5 7 6 
8 9 11 10 
12 13 15 14 
16 17 19 18 
20 21 23 22 
24 25 27 26 
28 29 31 30 
32 33 35 34 
36 37 39 38 
40 41 43 42 
44 45 47 46 
48 49 51 50 
52 53 55 54 
56 57 59 58 
60 61 63 62 
64 65 67 66 
68 69 71 70 
72 73 75 74 
76 77 79 78 
80 81 83 82 
84 85 87 86 
88 89 91 90 
92 93 95 94 
96 97 99 98 
</DataArray>
<DataArray type="Int32" Name="offsets" format="ascii">
4
8
12
16
20
24
28
32
36
40
44
48
52
56
60
64
68
72
76
80
84
88
92
96
100
</DataArray>
<DataArray type="UInt8" Name="types" format="ascii">
9
9
9
9
9
9
9
9
9
9
9
9
9
9
9
9
9
9
9
9
9
9
9
9
9
</DataArray>
</Cells>
<CellData Scalars="attribute">
<DataArray type="Int32" Name="attribute" format="ascii">
1
1
1
1
1
1
1
1
1
1
1
1
1
1
1
1
1
1
1
1
1
1
1
1
1
</DataArray>
</CellData>
<PointData >
<DataArray type="Float64" Name="div_heat_flux" NumberOfComponents="1"  format="ascii" >
-4.23612193
-4.23612193
-4.23612193
-4.23612193
-3.44758637
-3.44758637
-3.44758637
-3.44758637
-2.53370776
-2.53370776
-2.53370776
-2.53370776
-1.54574073
-1.54574073
-1.54574073
-1.54574073
-0.519213295
-0.519213295
-0.519213295
-0.519213295
-4.23612193
-4.23612193
-4.23612193
-4.23612193
-3.44758637
-3.44758637
-3.44758637
-3.44758637
-2.53370776
-2.53370776
-2.53370776
-2.53370776
-1.54574073
-1.54574073
-1.54574073
-1.54574073
-0.519213295
-0.519213295
-0.519213295
-0.519213295
-4.23612193
-4.23612193
-4.23612193
-4.23612193
-3.44758637
-3.44758637
-3.44758637
-3.44758637
-2.53370776
-2.53370776
-2.53370776
-2.53370776
-1.54574073
-1.54574073
-1.54574073
-1.54574073
-0.519213295
-0.519213295
-0.519213295
-0.519213295
-4.23612193
-4.23612193
-4.23612193
-4.23612193
-3.44758637
-3.44758637
-3.44758637
-3.44758637
-2.53370776
-2.53370776
-2.53370776
-2.53370776
-1.54574073
-1.54574073
-1.54574073
-1.54574073
-0.519213295
-0.519213295
-0.519213295
-0.519213295
-4.23612193
-4.23612193
-4.23612193
-4.23612193
-3.44758637
-3.44758637
-3.44758637
-3.44758637
-2.53370776
-2.53370776
-2.53370776
-2.53370776
-1.54574073
-1.54574073
-1.54574073
-1.54574073
-0.519213295
-0.519213295
-0.519213295
-0.519213295
</DataArray>
<DataArray type="Float64" Name="dtemperature_dt" NumberOfComponents="1"  format="ascii" >
4.23612193
4.23612193
4.23612193
4.23612193
3.44758637
3.44758637
3.44758637
3.44758637
2.53370776
2.53370776
2.53370776
2.53370776
1.54574073
1.54574073
1.54574073
1.54574073
0.519213295
0.519213295
0.519213295
0.519213295
4.23612193
4.23612193
4.23612193
4.23612193
3.44758637
3.44758637
3.44758637
3.44758637
2.53370776
2.53370776
2.53370776
2.53370776
1.54574073
1.54574073
1.54574073
1.54574073
0.519213295
0.519213295
0.519213295
0.519213295
4.23612193
4.23612193
4.23612193
4.23612193
3.44758637
3.44758637
3.44758637
3.44758637
2.53370776
2.53370776
2.53370776
2.53370776
1.54574073
1.54574073
1.54574073
1.54574073
0.519213295
0.519213295
0.519213295
0.519213295
4.23612193
4.23612193
4.23612193
4.23612193
3.44758637
3.44758637
3.44758637
3.44758637
2.53370776
2.53370776
2.53370776
2.53370776
1.54574073
1.54574073
1.54574073
1.54574073
0.519213295
0.519213295
0.519213295
0.519213295
4.23612193
4.23612193
4.23612193
4.23612193
3.44758637
3.44758637
3.44758637
3.44758637
2.53370776
2.53370776
2.53370776
2.53370776
1.54574073
1.54574073
1.54574073
1.54574073
0.519213295
0.519213295
0.519213295
0.519213295
</DataArray>
<DataArray type="Float64" Name="heat_flux" NumberOfComponents="2" ComponentName0="0" ComponentName1="1" format="ascii" >
5.81112672 3.49710752e-16 
5.38751452 -9.05279849e-16 
5.81112672 -7.50181317e-16 
5.38751452 2.55173882e-16 
5.38751452 2.6349989e-16 
5.04275589 -6.05780993e-16 
5.38751452 6.59024618e-16 
5.04275589 -6.93517139e-16 
5.04275589 -1.19448357e-16 
4.78938511 1.23559221e-15 
5.04275589 -6.47771047e-17 
4.78938511 1.40512044e-15 
4.78938511 3.17593825e-16 
4.63481104 -6.56301738e-16 
4.78938511 1.8417398e-16 
4.63481104 -8.85194954e-16 
4.63481104 -2.23622131e-16 
4.58288971 1.01286004e-15 
4.63481104 3.27728477e-16 
4.58288971 1.6529716e-15 
5.81112672 -7.50181317e-16 
5.38751452 2.55173882e-16 
5.81112672 -6.9745638e-16 
5.38751452 -7.10943134e-16 
5.38751452 6.59024618e-16 
5.04275589 -6.93517139e-16 
5.38751452 -1.03380195e-16 
5.04275589 2.98389166e-16 
5.04275589 -6.47771047e-17 
4.78938511 1.40512044e-15 
5.04275589 -1.06198155e-15 
4.78938511 3.98377538e-16 
4.78938511 1.8417398e-16 
4.63481104 -8.85194954e-16 
4.78938511 -3.41934042e-16 
4.63481104 -1.01328745e-15 
4.63481104 3.27728477e-16 
4.58288971 1.6529716e-15 
4.63481104 -1.05895791e-16 
4.58288971 1.15914137e-15 
5.81112672 -6.9745638e-16 
5.38751452 -7.10943134e-16 
5.81112672 -1.99443329e-15 
5.38751452 8.49496159e-17 
5.38751452 -1.03380195e-16 
5.04275589 2.98389166e-16 
5.38751452 3.45606629e-16 
5.04275589 -1.29077683e-16 
5.04275589 -1.06198155e-15 
4.78938511 3.98377538e-16 
5.04275589 -1.25355249e-16 
4.78938511 9.01361892e-16 
4.78938511 -3.41934042e-16 
4.63481104 -1.01328745e-15 
4.78938511 -7.01774057e-16 
4.63481104 -1.15194009e-15 
4.63481104 -1.05895791e-16 
4.58288971 1.15914137e-15 
4.63481104 -5.46342662e-16 
4.58288971 6.9767304e-16 
5.81112672 -1.99443329e-15 
5.38751452 8.49496159e-17 
5.81112672 -1.2385103e-15 
5.38751452 6.42759028e-16 
5.38751452 3.45606629e-16 
5.04275589 -1.29077683e-16 
5.38751452 9.16021922e-16 
5.04275589 -3.24520131e-16 
5.04275589 -1.25355249e-16 
4.78938511 9.01361892e-16 
5.04275589 -3.03904431e-16 
4.78938511 7.26378536e-16 
4.78938511 -7.01774057e-16 
4.63481104 -1.15194009e-15 
4.78938511 -3.23367733e-16 
4.63481104 -8.29534471e-16 
4.63481104 -5.46342662e-16 
4.58288971 6.9767304e-16 
4.63481104 -1.7268827e-16 
4.58288971 7.4606081e-16 
5.81112672 -1.2385103e-15 
5.38751452 6.42759028e-16 
5.81112672 0 
5.38751452 0 
5.38751452 9.16021922e-16 
5.04275589 -3.24520131e-16 
5.38751452 0 
5.04275589 0 
5.04275589 -3.03904431e-16 
4.78938511 7.26378536e-16 
5.04275589 0 
4.78938511 0 
4.78938511 -3.23367733e-16 
4.63481104 -8.29534471e-16 
4.78938511 0 
4.63481104 0 
4.63481104 -1.7268827e-16 
4.58288971 7.4606081e-16 
4.63481104 0 
4.58288971 0 
</DataArray>
<DataArray type="Float64" Name="temperature" NumberOfComponents="1"  format="ascii" >
0.367333473
0.367333473
0.367333473
0.367333473
0.277870121
0.277870121
0.277870121
0.277870121
0.194204972
0.194204972
0.194204972
0.194204972
0.11479354
0.11479354
0.11479354
0.11479354
0.0379744087
0.0379744087
0.0379744087
0.0379744087
0.367333473
0.367333473
0.367333473
0.367333473
0.277870121
0.277870121
0.277870121
0.277870121
0.194204972
0.194204972
0.194204972
0.194204972
0.11479354
0.11479354
0.11479354
0.11479354
0.0379744087
0.0379744087
0.0379744087
0.0379744087
0.367333473
0.367333473
0.367333473
0.367333473
0.277870121
0.277870121
0.277870121
0.277870121
0.194204972
0.194204972
0.194204972
0.194204972
0.11479354
0.11479354
0.11479354
0.11479354
0.0379744087
0.0379744087
0.0379744087
0.0379744087
0.367333473
0.367333473
0.367333473
0.367333473
0.277870121
0.277870121
0.277870121
0.277870121
0.194204972
0.194204972
0.194204972
0.194204972
0.11479354
0.11479354
0.11479354
0.11479354
0.0379744087
0.0379744087
0.0379744087
0.0379744087
0.367333473
0.367333473
0.367333473
0.367333473
0.277870121
0.277870121
0.277870121
0.277870121
0.194204972
0.194204972
0.194204972
0.194204972
0.11479354
0.11479354
0.11479354
0.11479354
0.0379744087
0.0379744087
0.0379744087
0.0379744087
</DataArray>
<DataArray type="Float64" Name="time_integrated_heat_flux" NumberOfComponents="2" ComponentName0="0" ComponentName1="1" format="ascii" >
0.318457079 -8.68198714e-17 
0.281723731 -2.66052931e-17 
0.318457079 -9.6041933e-17 
0.281723731 2.73255113e-17 
0.281723731 1.44158831e-17 
0.253936719 -3.1969494e-17 
0.281723731 5.96983164e-17 
0.253936719 -4.29604222e-17 
0.253936719 -1.39837265e-17 
0.234516222 8.33815389e-17 
0.253936719 -6.2097656e-18 
0.234516222 6.40579359e-17 
0.234516222 1.66756595e-17 
0.223036868 -7.03312884e-17 
0.234516222 -3.9344386e-18 
0.223036868 -4.16648485e-17 
0.223036868 -1.48124073e-18 
0.219239427 6.38780894e-17 
0.223036868 1.67514018e-17 
0.219239427 8.91292315e-17 
0.318457079 -9.6041933e-17 
0.281723731 2.73255113e-17 
0.318457079 -1.26050559e-16 
0.281723731 2.59095394e-17 
0.281723731 5.96983164e-17 
0.253936719 -4.29604222e-17 
0.281723731 4.72768368e-17 
0.253936719 -3.02875824e-17 
0.253936719 -6.2097656e-18 
0.234516222 6.40579359e-17 
0.253936719 -6.22133979e-17 
0.234516222 3.78932872e-17 
0.234516222 -3.9344386e-18 
0.223036868 -4.16648485e-17 
0.234516222 -1.61763301e-17 
0.223036868 -6.02703038e-17 
0.223036868 1.67514018e-17 
0.219239427 8.91292315e-17 
0.223036868 -2.40866404e-18 
0.219239427 5.43244199e-17 
0.318457079 -1.26050559e-16 
0.281723731 2.59095394e-17 
0.318457079 -1.09285247e-16 
0.281723731 4.54405652e-17 
0.281723731 4.72768368e-17 
0.253936719 -3.02875824e-17 
0.281723731 3.02527792e-17 
0.253936719 1.18698844e-18 
0.253936719 -6.22133979e-17 
0.234516222 3.78932872e-17 
0.253936719 -8.32069824e-18 
0.234516222 4.17317877e-17 
0.234516222 -1.61763301e-17 
0.223036868 -6.02703038e-17 
0.234516222 -2.21530539e-17 
0.223036868 -5.13896225e-17 
0.223036868 -2.40866404e-18 
0.219239427 5.43244199e-17 
0.223036868 -2.202651e-17 
0.219239427 2.99882646e-17 
0.318457079 -1.09285247e-16 
0.281723731 4.54405652e-17 
0.318457079 -8.21049481e-17 
0.281723731 4.92425633e-17 
0.281723731 3.02527792e-17 
0.253936719 1.18698844e-18 
0.281723731 6.07093713e-17 
0.253936719 -2.95241909e-17 
0.253936719 -8.32069824e-18 
0.234516222 4.17317877e-17 
0.253936719 -2.83313506e-17 
0.234516222 1.92354555e-17 
0.234516222 -2.21530539e-17 
0.223036868 -5.13896225e-17 
0.234516222 9.81910177e-19 
0.223036868 -3.5094405e-17 
0.223036868 -2.202651e-17 
0.219239427 2.99882646e-17 
0.223036868 -1.40411541e-17 
0.219239427 3.27496206e-17 
0.318457079 -8.21049481e-17 
0.281723731 4.92425633e-17 
0.318457079 0 
0.281723731 0 
0.281723731 6.07093713e-17 
0.253936719 -2.95241909e-17 
0.281723731 0 
0.253936719 0 
0.253936719 -2.83313506e-17 
0.234516222 1.92354555e-17 
0.253936719 0 
0.234516222 0 
0.234516222 9.81910177e-19 
0.223036868 -3.5094405e-17 
0.234516222 0 
0.223036868 0 
0.223036868 -1.40411541e-17 
0.219239427 3.27496206e-17 
0.223036868 0 
0.219239427 0 
</DataArray>
</PointData>
</Piece>
</UnstructuredGrid>
</VTKFile>
