<VTKFile type="UnstructuredGrid" version="2.2" byte_order="LittleEndian">
<UnstructuredGrid>
<Piece NumberOfPoints="100" NumberOfCells="25">
<Points>
<DataArray type="Float64" NumberOfComponents="3" format="ascii">
0.5 0 0
0.6 0 0
0.5 0.1 0
0.6 0.1 0
0.6 0 0
0.7 0 0
0.6 0.1 0
0.7 0.1 0
0.7 0 0
0.8 0 0
0.7 0.1 0
0.8 0.1 0
0.8 0 0
0.9 0 0
0.8 0.1 0
0.9 0.1 0
0.9 0 0
1 0 0
0.9 0.1 0
1 0.1 0
0.5 0.1 0
0.6 0.1 0
0.5 0.2 0
0.6 0.2 0
0.6 0.1 0
0.7 0.1 0
0.6 0.2 0
0.7 0.2 0
0.7 0.1 0
0.8 0.1 0
0.7 0.2 0
0.8 0.2 0
0.8 0.1 0
0.9 0.1 0
0.8 0.2 0
0.9 0.2 0
0.9 0.1 0
1 0.1 0
0.9 0.2 0
1 0.2 0
0.5 0.2 0
0.6 0.2 0
0.5 0.3 0
0.6 0.3 0
0.6 0.2 0
0.7 0.2 0
0.6 0.3 0
0.7 0.3 0
0.7 0.2 0
0.8 0.2 0
0.7 0.3 0
0.8 0.3 0
0.8 0.2 0
0.9 0.2 0
0.8 0.3 0
0.9 0.3 0
0.9 0.2 0
1 0.2 0
0.9 0.3 0
1 0.3 0
0.5 0.3 0
0.6 0.3 0
0.5 0.4 0
0.6 0.4 0
0.6 0.3 0
0.7 0.3 0
0.6 0.4 0
0.7 0.4 0
0.7 0.3 0
0.8 0.3 0
0.7 0.4 0
0.8 0.4 0
0.8 0.3 0
0.9 0.3 0
0.8 0.4 0
0.9 0.4 0
0.9 0.3 0
1 0.3 0
0.9 0.4 0
1 0.4 0
0.5 0.4 0
0.6 0.4 0
0.5 0.5 0
0.6 0.5 0
0.6 0.4 0
0.7 0.4 0
0.6 0.5 0
0.7 0.5 0
0.7 0.4 0
0.8 0.4 0
0.7 0.5 0
0.8 0.5 0
0.8 0.4 0
0.9 0.4 0
0.8 0.5 0
0.9 0.5 0
0.9 0.4 0
1 0.4 0
0.9 0.5 0
1 0.5 0
</DataArray>
</Points>
<Cells>
<DataArray type="Int32" Name="connectivity" format="ascii">
0 1 3 2 
4 5 7 6 
8 9 11 10 
12 13 15 14 
16 17 19 18 
20 21 23 22 
24 25 27 26 
28 29 31 30 
32 33 35 34 
36 37 39 38 
40 41 43 42 
44 45 47 46 
48 49 51 50 
52 53 55 54 
56 57 59 58 
60 61 63 62 
64 65 67 66 
68 69 71 70 
72 73 75 74 
76 77 79 78 
80 81 83 82 
84 85 87 86 
88 89 91 90 
92 93 95 94 
96 97 99 98 
</DataArray>
<DataArray type="Int32" Name="offsets" format="ascii">
4
8
12
16
20
24
28
32
36
40
44
48
52
56
60
64
68
72
76
80
84
88
92
96
100
</DataArray>
<DataArray type="UInt8" Name="types" format="ascii">
9
9
9
9
9
9
9
9
9
9
9
9
9
9
9
9
9
9
9
9
9
9
9
9
9
</DataArray>
</Cells>
<CellData Scalars="attribute">
<DataArray type="Int32" Name="attribute" format="ascii">
1
1
1
1
1
1
1
1
1
1
1
1
1
1
1
1
1
1
1
1
1
1
1
1
1
</DataArray>
</CellData>
<PointData >
<DataArray type="Float64" Name="div_heat_flux" NumberOfComponents="1"  format="ascii" >
-4.23612193
-4.23612193
-4.23612193
-4.23612193
-3.44758637
-3.44758637
-3.44758637
-3.44758637
-2.53370776
-2.53370776
-2.53370776
-2.53370776
-1.54574073
-1.54574073
-1.54574073
-1.54574073
-0.519213295
-0.519213295
-0.519213295
-0.519213295
-4.23612193
-4.23612193
-4.23612193
-4.23612193
-3.44758637
-3.44758637
-3.44758637
-3.44758637
-2.53370776
-2.53370776
-2.53370776
-2.53370776
-1.54574073
-1.54574073
-1.54574073
-1.54574073
-0.519213295
-0.519213295
-0.519213295
-0.519213295
-4.23612193
-4.23612193
-4.23612193
-4.23612193
-3.44758637
-3.44758637
-3.44758637
-3.44758637
-2.53370776
-2.53370776
-2.53370776
-2.53370776
-1.54574073
-1.54574073
-1.54574073
-1.54574073
-0.519213295
-0.519213295
-0.519213295
-0.519213295
-4.23612193
-4.23612193
-4.23612193
-4.23612193
-3.44758637
-3.44758637
-3.44758637
-3.44758637
-2.53370776
-2.53370776
-2.53370776
-2.53370776
-1.54574073
-1.54574073
-1.54574073
-1.54574073
-0.519213295
-0.519213295
-0.519213295
-0.519213295
-4.23612193
-4.23612193
-4.23612193
-4.23612193
-3.44758637
-3.44758637
-3.44758637
-3.44758637
-2.53370776
-2.53370776
-2.53370776
-2.53370776
-1.54574073
-1.54574073
-1.54574073
-1.54574073
-0.519213295
-0.519213295
-0.519213295
-0.519213295
</DataArray>
<DataArray type="Float64" Name="dtemperature_dt" NumberOfComponents="1"  format="ascii" >
4.23612193
4.23612193
4.23612193
4.23612193
3.44758637
3.44758637
3.44758637
3.44758637
2.53370776
2.53370776
2.53370776
2.53370776
1.54574073
1.54574073
1.54574073
1.54574073
0.519213295
0.519213295
0.519213295
0.519213295
4.23612193
4.23612193
4.23612193
4.23612193
3.44758637
3.44758637
3.44758637
3.44758637
2.53370776
2.53370776
2.53370776
2.53370776
1.54574073
1.54574073
1.54574073
1.54574073
0.519213295
0.519213295
0.519213295
0.519213295
4.23612193
4.23612193
4.23612193
4.23612193
3.44758637
3.44758637
3.44758637
3.44758637
2.53370776
2.53370776
2.53370776
2.53370776
1.54574073
1.54574073
1.54574073
1.54574073
0.519213295
0.519213295
0.519213295
0.519213295
4.23612193
4.23612193
4.23612193
4.23612193
3.44758637
3.44758637
3.44758637
3.44758637
2.53370776
2.53370776
2.53370776
2.53370776
1.54574073
1.54574073
1.54574073
1.54574073
0.519213295
0.519213295
0.519213295
0.519213295
4.23612193
4.23612193
4.23612193
4.23612193
3.44758637
3.44758637
3.44758637
3.44758637
2.53370776
2.53370776
2.53370776
2.53370776
1.54574073
1.54574073
1.54574073
1.54574073
0.519213295
0.519213295
0.519213295
0.519213295
</DataArray>
<DataArray type="Float64" Name="heat_flux" NumberOfComponents="2" ComponentName0="0" ComponentName1="1" format="ascii" >
5.81112672 0 
5.38751452 0 
5.81112672 -1.32832105e-15 
5.38751452 6.28460563e-16 
5.38751452 0 
5.04275589 0 
5.38751452 4.73517938e-16 
5.04275589 2.6364109e-18 
5.04275589 0 
4.78938511 0 
5.04275589 -6.72699399e-16 
4.78938511 5.34605858e-16 
4.78938511 0 
4.63481104 0 
4.78938511 -8.19180824e-17 
4.63481104 -7.87526026e-16 
4.63481104 0 
4.58288971 0 
4.63481104 -1.53540139e-16 
4.58288971 8.76229986e-16 
5.81112672 -1.32832105e-15 
5.38751452 6.28460563e-16 
5.81112672 -1.38317987e-15 
5.38751452 -2.55780393e-18 
5.38751452 4.73517938e-16 
5.04275589 2.6364109e-18 
5.38751452 9.27314537e-16 
5.04275589 -8.21023931e-16 
5.04275589 -6.72699399e-16 
4.78938511 5.34605858e-16 
5.04275589 -3.94248633e-16 
4.78938511 6.20654524e-16 
4.78938511 -8.19180824e-17 
4.63481104 -7.87526026e-16 
4.78938511 5.79419106e-16 
4.63481104 -5.1409024e-16 
4.63481104 -1.53540139e-16 
4.58288971 8.76229986e-16 
4.63481104 5.84771955e-17 
4.58288971 1.27765593e-15 
5.81112672 -1.38317987e-15 
5.38751452 -2.55780393e-18 
5.81112672 -1.24977761e-15 
5.38751452 1.5709695e-16 
5.38751452 9.27314537e-16 
5.04275589 -8.21023931e-16 
5.38751452 6.52555998e-16 
5.04275589 1.28709878e-15 
5.04275589 -3.94248633e-16 
4.78938511 6.20654524e-16 
5.04275589 -3.87497532e-16 
4.78938511 1.21365409e-15 
4.78938511 5.79419106e-16 
4.63481104 -5.1409024e-16 
4.78938511 -3.01057281e-16 
4.63481104 -9.7202313e-16 
4.63481104 5.84771955e-17 
4.58288971 1.27765593e-15 
4.63481104 1.62518114e-17 
4.58288971 1.16816814e-15 
5.81112672 -1.24977761e-15 
5.38751452 1.5709695e-16 
5.81112672 -7.02578287e-16 
5.38751452 -1.17257577e-15 
5.38751452 6.52555998e-16 
5.04275589 1.28709878e-15 
5.38751452 4.40714742e-16 
5.04275589 -3.27838709e-16 
5.04275589 -3.87497532e-16 
4.78938511 1.21365409e-15 
5.04275589 -5.7029357e-16 
4.78938511 9.90945775e-16 
4.78938511 -3.01057281e-16 
4.63481104 -9.7202313e-16 
4.78938511 1.52480225e-16 
4.63481104 -4.51138928e-16 
4.63481104 1.62518114e-17 
4.58288971 1.16816814e-15 
4.63481104 -2.84643732e-16 
4.58288971 9.13860523e-16 
5.81112672 -7.02578287e-16 
5.38751452 -1.17257577e-15 
5.81112672 3.49710752e-16 
5.38751452 -9.05279849e-16 
5.38751452 4.40714742e-16 
5.04275589 -3.27838709e-16 
5.38751452 2.6349989e-16 
5.04275589 -6.05780993e-16 
5.04275589 -5.7029357e-16 
4.78938511 9.90945775e-16 
5.04275589 -1.19448357e-16 
4.78938511 1.23559221e-15 
4.78938511 1.52480225e-16 
4.63481104 -4.51138928e-16 
4.78938511 3.17593825e-16 
4.63481104 -6.56301738e-16 
4.63481104 -2.84643732e-16 
4.58288971 9.13860523e-16 
4.63481104 -2.23622131e-16 
4.58288971 1.01286004e-15 
</DataArray>
<DataArray type="Float64" Name="temperature" NumberOfComponents="1"  format="ascii" >
0.367333473
0.367333473
0.367333473
0.367333473
0.277870121
0.277870121
0.277870121
0.277870121
0.194204972
0.194204972
0.194204972
0.194204972
0.11479354
0.11479354
0.11479354
0.11479354
0.0379744087
0.0379744087
0.0379744087
0.0379744087
0.367333473
0.367333473
0.367333473
0.367333473
0.277870121
0.277870121
0.277870121
0.277870121
0.194204972
0.194204972
0.194204972
0.194204972
0.11479354
0.11479354
0.11479354
0.11479354
0.0379744087
0.0379744087
0.0379744087
0.0379744087
0.367333473
0.367333473
0.367333473
0.367333473
0.277870121
0.277870121
0.277870121
0.277870121
0.194204972
0.194204972
0.194204972
0.194204972
0.11479354
0.11479354
0.11479354
0.11479354
0.0379744087
0.0379744087
0.0379744087
0.0379744087
0.367333473
0.367333473
0.367333473
0.367333473
0.277870121
0.277870121
0.277870121
0.277870121
0.194204972
0.194204972
0.194204972
0.194204972
0.11479354
0.11479354
0.11479354
0.11479354
0.0379744087
0.0379744087
0.0379744087
0.0379744087
0.367333473
0.367333473
0.367333473
0.367333473
0.277870121
0.277870121
0.277870121
0.277870121
0.194204972
0.194204972
0.194204972
0.194204972
0.11479354
0.11479354
0.11479354
0.11479354
0.0379744087
0.0379744087
0.0379744087
0.0379744087
</DataArray>
<DataArray type="Float64" Name="time_integrated_heat_flux" NumberOfComponents="2" ComponentName0="0" ComponentName1="1" format="ascii" >
0.318457079 0 
0.281723731 0 
0.318457079 -9.8642383e-17 
0.281723731 4.65040871e-17 
0.281723731 0 
0.253936719 0 
0.281723731 2.76117684e-17 
0.253936719 -1.57811317e-17 
0.253936719 0 
0.234516222 0 
0.253936719 -1.80766208e-17 
0.234516222 2.54231612e-17 
0.234516222 0 
0.223036868 0 
0.234516222 -1.53527481e-19 
0.223036868 -3.93247495e-17 
0.223036868 0 
0.219239427 0 
0.223036868 -7.82484508e-18 
0.219239427 4.46353457e-17 
0.318457079 -9.8642383e-17 
0.281723731 4.65040871e-17 
0.318457079 -7.50372222e-17 
0.281723731 -1.329155e-17 
0.281723731 2.76117684e-17 
0.253936719 -1.57811317e-17 
0.281723731 2.42725535e-17 
0.253936719 -1.81309208e-17 
0.253936719 -1.80766208e-17 
0.234516222 2.54231612e-17 
0.253936719 -2.27269323e-17 
0.234516222 3.4779032e-17 
0.234516222 -1.53527481e-19 
0.223036868 -3.93247495e-17 
0.234516222 1.39227853e-17 
0.223036868 -2.00170288e-17 
0.223036868 -7.82484508e-18 
0.219239427 4.46353457e-17 
0.223036868 3.75311471e-18 
0.219239427 6.06374089e-17 
0.318457079 -7.50372222e-17 
0.281723731 -1.329155e-17 
0.318457079 -9.13110555e-17 
0.281723731 -2.30990592e-17 
0.281723731 2.42725535e-17 
0.253936719 -1.81309208e-17 
0.281723731 6.94066469e-18 
0.253936719 5.52913821e-17 
0.253936719 -2.27269323e-17 
0.234516222 3.4779032e-17 
0.253936719 -1.11459369e-18 
0.234516222 6.717059e-17 
0.234516222 1.39227853e-17 
0.223036868 -2.00170288e-17 
0.234516222 -8.96247926e-18 
0.223036868 -5.5321583e-17 
0.223036868 3.75311471e-18 
0.219239427 6.06374089e-17 
0.223036868 -3.99206368e-18 
0.219239427 6.34904849e-17 
0.318457079 -9.13110555e-17 
0.281723731 -2.30990592e-17 
0.318457079 -1.16501537e-16 
0.281723731 -4.00264123e-17 
0.281723731 6.94066469e-18 
0.253936719 5.52913821e-17 
0.281723731 8.35901354e-18 
0.253936719 -1.44684552e-17 
0.253936719 -1.11459369e-18 
0.234516222 6.717059e-17 
0.253936719 -1.92297222e-17 
0.234516222 4.63488667e-17 
0.234516222 -8.96247926e-18 
0.223036868 -5.5321583e-17 
0.234516222 1.99863652e-17 
0.223036868 -3.96799788e-17 
0.223036868 -3.99206368e-18 
0.219239427 6.34904849e-17 
0.223036868 -1.20220636e-17 
0.219239427 4.68943659e-17 
0.318457079 -1.16501537e-16 
0.281723731 -4.00264123e-17 
0.318457079 -8.68198714e-17 
0.281723731 -2.66052931e-17 
0.281723731 8.35901354e-18 
0.253936719 -1.44684552e-17 
0.281723731 1.44158831e-17 
0.253936719 -3.1969494e-17 
0.253936719 -1.92297222e-17 
0.234516222 4.63488667e-17 
0.253936719 -1.39837265e-17 
0.234516222 8.33815389e-17 
0.234516222 1.99863652e-17 
0.223036868 -3.96799788e-17 
0.234516222 1.66756595e-17 
0.223036868 -7.03312884e-17 
0.223036868 -1.20220636e-17 
0.219239427 4.68943659e-17 
0.223036868 -1.48124073e-18 
0.219239427 6.38780894e-17 
</DataArray>
</PointData>
</Piece>
</UnstructuredGrid>
</VTKFile>
