<VTKFile type="UnstructuredGrid" version="2.2" byte_order="LittleEndian">
<UnstructuredGrid>
<Piece NumberOfPoints="3584" NumberOfCells="448">
<Points>
<DataArray type="Float64" NumberOfComponents="3" format="ascii">
0 -1 -1
0.25 -1 -1
0 -0.75 -1
0.25 -0.75 -1
0 -1 -0.75
0.25 -1 -0.75
0 -0.75 -0.75
0.25 -0.75 -0.75
0.25 -1 -1
0.5 -1 -1
0.25 -0.75 -1
0.5 -0.75 -1
0.25 -1 -0.75
0.5 -1 -0.75
0.25 -0.75 -0.75
0.5 -0.75 -0.75
0.25 -0.75 -1
0.5 -0.75 -1
0.25 -0.5 -1
0.5 -0.5 -1
0.25 -0.75 -0.75
0.5 -0.75 -0.75
0.25 -0.5 -0.75
0.5 -0.5 -0.75
0 -0.75 -1
0.25 -0.75 -1
0 -0.5 -1
0.25 -0.5 -1
0 -0.75 -0.75
0.25 -0.75 -0.75
0 -0.5 -0.75
0.25 -0.5 -0.75
0 -1 -0.75
0.25 -1 -0.75
0 -0.75 -0.75
0.25 -0.75 -0.75
0 -1 -0.5
0.25 -1 -0.5
0 -0.75 -0.5
0.25 -0.75 -0.5
0.25 -1 -0.75
0.5 -1 -0.75
0.25 -0.75 -0.75
0.5 -0.75 -0.75
0.25 -1 -0.5
0.5 -1 -0.5
0.25 -0.75 -0.5
0.5 -0.75 -0.5
0.25 -0.75 -0.75
0.5 -0.75 -0.75
0.25 -0.5 -0.75
0.5 -0.5 -0.75
0.25 -0.75 -0.5
0.5 -0.75 -0.5
0.25 -0.5 -0.5
0.5 -0.5 -0.5
0 -0.75 -0.75
0.25 -0.75 -0.75
0 -0.5 -0.75
0.25 -0.5 -0.75
0 -0.75 -0.5
0.25 -0.75 -0.5
0 -0.5 -0.5
0.25 -0.5 -0.5
0.5 -1 -1
0.75 -1 -1
0.5 -0.75 -1
0.75 -0.75 -1
0.5 -1 -0.75
0.75 -1 -0.75
0.5 -0.75 -0.75
0.75 -0.75 -0.75
0.75 -1 -1
1 -1 -1
0.75 -0.75 -1
1 -0.75 -1
0.75 -1 -0.75
1 -1 -0.75
0.75 -0.75 -0.75
1 -0.75 -0.75
0.75 -0.75 -1
1 -0.75 -1
0.75 -0.5 -1
1 -0.5 -1
0.75 -0.75 -0.75
1 -0.75 -0.75
0.75 -0.5 -0.75
1 -0.5 -0.75
0.5 -0.75 -1
0.75 -0.75 -1
0.5 -0.5 -1
0.75 -0.5 -1
0.5 -0.75 -0.75
0.75 -0.75 -0.75
0.5 -0.5 -0.75
0.75 -0.5 -0.75
0.5 -1 -0.75
0.75 -1 -0.75
0.5 -0.75 -0.75
0.75 -0.75 -0.75
0.5 -1 -0.5
0.75 -1 -0.5
0.5 -0.75 -0.5
0.75 -0.75 -0.5
0.75 -1 -0.75
1 -1 -0.75
0.75 -0.75 -0.75
1 -0.75 -0.75
0.75 -1 -0.5
1 -1 -0.5
0.75 -0.75 -0.5
1 -0.75 -0.5
0.75 -0.75 -0.75
1 -0.75 -0.75
0.75 -0.5 -0.75
1 -0.5 -0.75
0.75 -0.75 -0.5
1 -0.75 -0.5
0.75 -0.5 -0.5
1 -0.5 -0.5
0.5 -0.75 -0.75
0.75 -0.75 -0.75
0.5 -0.5 -0.75
0.75 -0.5 -0.75
0.5 -0.75 -0.5
0.75 -0.75 -0.5
0.5 -0.5 -0.5
0.75 -0.5 -0.5
0.5 -0.5 -1
0.75 -0.5 -1
0.5 -0.25 -1
0.75 -0.25 -1
0.5 -0.5 -0.75
0.75 -0.5 -0.75
0.5 -0.25 -0.75
0.75 -0.25 -0.75
0.75 -0.5 -1
1 -0.5 -1
0.75 -0.25 -1
1 -0.25 -1
0.75 -0.5 -0.75
1 -0.5 -0.75
0.75 -0.25 -0.75
1 -0.25 -0.75
0.75 -0.25 -1
1 -0.25 -1
0.75 0 -1
1 0 -1
0.75 -0.25 -0.75
1 -0.25 -0.75
0.75 0 -0.75
1 0 -0.75
0.5 -0.25 -1
0.75 -0.25 -1
0.5 0 -1
0.75 0 -1
0.5 -0.25 -0.75
0.75 -0.25 -0.75
0.5 0 -0.75
0.75 0 -0.75
0.5 -0.5 -0.75
0.75 -0.5 -0.75
0.5 -0.25 -0.75
0.75 -0.25 -0.75
0.5 -0.5 -0.5
0.75 -0.5 -0.5
0.5 -0.25 -0.5
0.75 -0.25 -0.5
0.75 -0.5 -0.75
1 -0.5 -0.75
0.75 -0.25 -0.75
1 -0.25 -0.75
0.75 -0.5 -0.5
1 -0.5 -0.5
0.75 -0.25 -0.5
1 -0.25 -0.5
0.75 -0.25 -0.75
1 -0.25 -0.75
0.75 0 -0.75
1 0 -0.75
0.75 -0.25 -0.5
1 -0.25 -0.5
0.75 0 -0.5
1 0 -0.5
0.5 -0.25 -0.75
0.75 -0.25 -0.75
0.5 0 -0.75
0.75 0 -0.75
0.5 -0.25 -0.5
0.75 -0.25 -0.5
0.5 0 -0.5
0.75 0 -0.5
0 -0.5 -1
0.25 -0.5 -1
0 -0.25 -1
0.25 -0.25 -1
0 -0.5 -0.75
0.25 -0.5 -0.75
0 -0.25 -0.75
0.25 -0.25 -0.75
0.25 -0.5 -1
0.5 -0.5 -1
0.25 -0.25 -1
0.5 -0.25 -1
0.25 -0.5 -0.75
0.5 -0.5 -0.75
0.25 -0.25 -0.75
0.5 -0.25 -0.75
0.25 -0.25 -1
0.5 -0.25 -1
0.25 0 -1
0.5 0 -1
0.25 -0.25 -0.75
0.5 -0.25 -0.75
0.25 0 -0.75
0.5 0 -0.75
0 -0.25 -1
0.25 -0.25 -1
0 0 -1
0.25 0 -1
0 -0.25 -0.75
0.25 -0.25 -0.75
0 0 -0.75
0.25 0 -0.75
0 -0.5 -0.75
0.25 -0.5 -0.75
0 -0.25 -0.75
0.25 -0.25 -0.75
0 -0.5 -0.5
0.25 -0.5 -0.5
0 -0.25 -0.5
0.25 -0.25 -0.5
0.25 -0.5 -0.75
0.5 -0.5 -0.75
0.25 -0.25 -0.75
0.5 -0.25 -0.75
0.25 -0.5 -0.5
0.5 -0.5 -0.5
0.25 -0.25 -0.5
0.5 -0.25 -0.5
0.25 -0.25 -0.75
0.5 -0.25 -0.75
0.25 0 -0.75
0.5 0 -0.75
0.25 -0.25 -0.5
0.5 -0.25 -0.5
0.25 0 -0.5
0.5 0 -0.5
0 -0.25 -0.75
0.25 -0.25 -0.75
0 0 -0.75
0.25 0 -0.75
0 -0.25 -0.5
0.25 -0.25 -0.5
0 0 -0.5
0.25 0 -0.5
0 -1 -0.5
0.25 -1 -0.5
0 -0.75 -0.5
0.25 -0.75 -0.5
0 -1 -0.25
0.25 -1 -0.25
0 -0.75 -0.25
0.25 -0.75 -0.25
0.25 -1 -0.5
0.5 -1 -0.5
0.25 -0.75 -0.5
0.5 -0.75 -0.5
0.25 -1 -0.25
0.5 -1 -0.25
0.25 -0.75 -0.25
0.5 -0.75 -0.25
0.25 -0.75 -0.5
0.5 -0.75 -0.5
0.25 -0.5 -0.5
0.5 -0.5 -0.5
0.25 -0.75 -0.25
0.5 -0.75 -0.25
0.25 -0.5 -0.25
0.5 -0.5 -0.25
0 -0.75 -0.5
0.25 -0.75 -0.5
0 -0.5 -0.5
0.25 -0.5 -0.5
0 -0.75 -0.25
0.25 -0.75 -0.25
0 -0.5 -0.25
0.25 -0.5 -0.25
0 -1 -0.25
0.25 -1 -0.25
0 -0.75 -0.25
0.25 -0.75 -0.25
0 -1 0
0.25 -1 0
0 -0.75 0
0.25 -0.75 0
0.25 -1 -0.25
0.5 -1 -0.25
0.25 -0.75 -0.25
0.5 -0.75 -0.25
0.25 -1 0
0.5 -1 0
0.25 -0.75 0
0.5 -0.75 0
0.25 -0.75 -0.25
0.5 -0.75 -0.25
0.25 -0.5 -0.25
0.5 -0.5 -0.25
0.25 -0.75 0
0.5 -0.75 0
0.25 -0.5 0
0.5 -0.5 0
0 -0.75 -0.25
0.25 -0.75 -0.25
0 -0.5 -0.25
0.25 -0.5 -0.25
0 -0.75 0
0.25 -0.75 0
0 -0.5 0
0.25 -0.5 0
0.5 -1 -0.5
0.75 -1 -0.5
0.5 -0.75 -0.5
0.75 -0.75 -0.5
0.5 -1 -0.25
0.75 -1 -0.25
0.5 -0.75 -0.25
0.75 -0.75 -0.25
0.75 -1 -0.5
1 -1 -0.5
0.75 -0.75 -0.5
1 -0.75 -0.5
0.75 -1 -0.25
1 -1 -0.25
0.75 -0.75 -0.25
1 -0.75 -0.25
0.75 -0.75 -0.5
1 -0.75 -0.5
0.75 -0.5 -0.5
1 -0.5 -0.5
0.75 -0.75 -0.25
1 -0.75 -0.25
0.75 -0.5 -0.25
1 -0.5 -0.25
0.5 -0.75 -0.5
0.75 -0.75 -0.5
0.5 -0.5 -0.5
0.75 -0.5 -0.5
0.5 -0.75 -0.25
0.75 -0.75 -0.25
0.5 -0.5 -0.25
0.75 -0.5 -0.25
0.5 -1 -0.25
0.75 -1 -0.25
0.5 -0.75 -0.25
0.75 -0.75 -0.25
0.5 -1 0
0.75 -1 0
0.5 -0.75 0
0.75 -0.75 0
0.75 -1 -0.25
1 -1 -0.25
0.75 -0.75 -0.25
1 -0.75 -0.25
0.75 -1 0
1 -1 0
0.75 -0.75 0
1 -0.75 0
0.75 -0.75 -0.25
1 -0.75 -0.25
0.75 -0.5 -0.25
1 -0.5 -0.25
0.75 -0.75 0
1 -0.75 0
0.75 -0.5 0
1 -0.5 0
0.5 -0.75 -0.25
0.75 -0.75 -0.25
0.5 -0.5 -0.25
0.75 -0.5 -0.25
0.5 -0.75 0
0.75 -0.75 0
0.5 -0.5 0
0.75 -0.5 0
0.5 -0.5 -0.5
0.75 -0.5 -0.5
0.5 -0.25 -0.5
0.75 -0.25 -0.5
0.5 -0.5 -0.25
0.75 -0.5 -0.25
0.5 -0.25 -0.25
0.75 -0.25 -0.25
0.75 -0.5 -0.5
1 -0.5 -0.5
0.75 -0.25 -0.5
1 -0.25 -0.5
0.75 -0.5 -0.25
1 -0.5 -0.25
0.75 -0.25 -0.25
1 -0.25 -0.25
0.75 -0.25 -0.5
1 -0.25 -0.5
0.75 0 -0.5
1 0 -0.5
0.75 -0.25 -0.25
1 -0.25 -0.25
0.75 0 -0.25
1 0 -0.25
0.5 -0.25 -0.5
0.75 -0.25 -0.5
0.5 0 -0.5
0.75 0 -0.5
0.5 -0.25 -0.25
0.75 -0.25 -0.25
0.5 0 -0.25
0.75 0 -0.25
0.5 -0.5 -0.25
0.75 -0.5 -0.25
0.5 -0.25 -0.25
0.75 -0.25 -0.25
0.5 -0.5 0
0.75 -0.5 0
0.5 -0.25 0
0.75 -0.25 0
0.75 -0.5 -0.25
1 -0.5 -0.25
0.75 -0.25 -0.25
1 -0.25 -0.25
0.75 -0.5 0
1 -0.5 0
0.75 -0.25 0
1 -0.25 0
0.75 -0.25 -0.25
1 -0.25 -0.25
0.75 0 -0.25
1 0 -0.25
0.75 -0.25 0
1 -0.25 0
0.75 0 0
1 0 0
0.5 -0.25 -0.25
0.75 -0.25 -0.25
0.5 0 -0.25
0.75 0 -0.25
0.5 -0.25 0
0.75 -0.25 0
0.5 0 0
0.75 0 0
0 -0.5 -0.5
0.25 -0.5 -0.5
0 -0.25 -0.5
0.25 -0.25 -0.5
0 -0.5 -0.25
0.25 -0.5 -0.25
0 -0.25 -0.25
0.25 -0.25 -0.25
0.25 -0.5 -0.5
0.5 -0.5 -0.5
0.25 -0.25 -0.5
0.5 -0.25 -0.5
0.25 -0.5 -0.25
0.5 -0.5 -0.25
0.25 -0.25 -0.25
0.5 -0.25 -0.25
0.25 -0.25 -0.5
0.5 -0.25 -0.5
0.25 0 -0.5
0.5 0 -0.5
0.25 -0.25 -0.25
0.5 -0.25 -0.25
0.25 0 -0.25
0.5 0 -0.25
0 -0.25 -0.5
0.25 -0.25 -0.5
0 0 -0.5
0.25 0 -0.5
0 -0.25 -0.25
0.25 -0.25 -0.25
0 0 -0.25
0.25 0 -0.25
0 -0.5 -0.25
0.25 -0.5 -0.25
0 -0.25 -0.25
0.25 -0.25 -0.25
0 -0.5 0
0.25 -0.5 0
0 -0.25 0
0.25 -0.25 0
0.25 -0.5 -0.25
0.5 -0.5 -0.25
0.25 -0.25 -0.25
0.5 -0.25 -0.25
0.25 -0.5 0
0.5 -0.5 0
0.25 -0.25 0
0.5 -0.25 0
0.25 -0.25 -0.25
0.5 -0.25 -0.25
0.25 0 -0.25
0.5 0 -0.25
0.25 -0.25 0
0.5 -0.25 0
0.25 0 0
0.5 0 0
0 -0.25 -0.25
0.25 -0.25 -0.25
0 0 -0.25
0.25 0 -0.25
0 -0.25 0
0.25 -0.25 0
0 0 0
0.25 0 0
0 0 -1
0.25 0 -1
0 0.25 -1
0.25 0.25 -1
0 0 -0.75
0.25 0 -0.75
0 0.25 -0.75
0.25 0.25 -0.75
0.25 0 -1
0.5 0 -1
0.25 0.25 -1
0.5 0.25 -1
0.25 0 -0.75
0.5 0 -0.75
0.25 0.25 -0.75
0.5 0.25 -0.75
0.25 0.25 -1
0.5 0.25 -1
0.25 0.5 -1
0.5 0.5 -1
0.25 0.25 -0.75
0.5 0.25 -0.75
0.25 0.5 -0.75
0.5 0.5 -0.75
0 0.25 -1
0.25 0.25 -1
0 0.5 -1
0.25 0.5 -1
0 0.25 -0.75
0.25 0.25 -0.75
0 0.5 -0.75
0.25 0.5 -0.75
0 0 -0.75
0.25 0 -0.75
0 0.25 -0.75
0.25 0.25 -0.75
0 0 -0.5
0.25 0 -0.5
0 0.25 -0.5
0.25 0.25 -0.5
0.25 0 -0.75
0.5 0 -0.75
0.25 0.25 -0.75
0.5 0.25 -0.75
0.25 0 -0.5
0.5 0 -0.5
0.25 0.25 -0.5
0.5 0.25 -0.5
0.25 0.25 -0.75
0.5 0.25 -0.75
0.25 0.5 -0.75
0.5 0.5 -0.75
0.25 0.25 -0.5
0.5 0.25 -0.5
0.25 0.5 -0.5
0.5 0.5 -0.5
0 0.25 -0.75
0.25 0.25 -0.75
0 0.5 -0.75
0.25 0.5 -0.75
0 0.25 -0.5
0.25 0.25 -0.5
0 0.5 -0.5
0.25 0.5 -0.5
0.5 0 -1
0.75 0 -1
0.5 0.25 -1
0.75 0.25 -1
0.5 0 -0.75
0.75 0 -0.75
0.5 0.25 -0.75
0.75 0.25 -0.75
0.75 0 -1
1 0 -1
0.75 0.25 -1
1 0.25 -1
0.75 0 -0.75
1 0 -0.75
0.75 0.25 -0.75
1 0.25 -0.75
0.75 0.25 -1
1 0.25 -1
0.75 0.5 -1
1 0.5 -1
0.75 0.25 -0.75
1 0.25 -0.75
0.75 0.5 -0.75
1 0.5 -0.75
0.5 0.25 -1
0.75 0.25 -1
0.5 0.5 -1
0.75 0.5 -1
0.5 0.25 -0.75
0.75 0.25 -0.75
0.5 0.5 -0.75
0.75 0.5 -0.75
0.5 0 -0.75
0.75 0 -0.75
0.5 0.25 -0.75
0.75 0.25 -0.75
0.5 0 -0.5
0.75 0 -0.5
0.5 0.25 -0.5
0.75 0.25 -0.5
0.75 0 -0.75
1 0 -0.75
0.75 0.25 -0.75
1 0.25 -0.75
0.75 0 -0.5
1 0 -0.5
0.75 0.25 -0.5
1 0.25 -0.5
0.75 0.25 -0.75
1 0.25 -0.75
0.75 0.5 -0.75
1 0.5 -0.75
0.75 0.25 -0.5
1 0.25 -0.5
0.75 0.5 -0.5
1 0.5 -0.5
0.5 0.25 -0.75
0.75 0.25 -0.75
0.5 0.5 -0.75
0.75 0.5 -0.75
0.5 0.25 -0.5
0.75 0.25 -0.5
0.5 0.5 -0.5
0.75 0.5 -0.5
0.5 0.5 -1
0.75 0.5 -1
0.5 0.75 -1
0.75 0.75 -1
0.5 0.5 -0.75
0.75 0.5 -0.75
0.5 0.75 -0.75
0.75 0.75 -0.75
0.75 0.5 -1
1 0.5 -1
0.75 0.75 -1
1 0.75 -1
0.75 0.5 -0.75
1 0.5 -0.75
0.75 0.75 -0.75
1 0.75 -0.75
0.75 0.75 -1
1 0.75 -1
0.75 1 -1
1 1 -1
0.75 0.75 -0.75
1 0.75 -0.75
0.75 1 -0.75
1 1 -0.75
0.5 0.75 -1
0.75 0.75 -1
0.5 1 -1
0.75 1 -1
0.5 0.75 -0.75
0.75 0.75 -0.75
0.5 1 -0.75
0.75 1 -0.75
0.5 0.5 -0.75
0.75 0.5 -0.75
0.5 0.75 -0.75
0.75 0.75 -0.75
0.5 0.5 -0.5
0.75 0.5 -0.5
0.5 0.75 -0.5
0.75 0.75 -0.5
0.75 0.5 -0.75
1 0.5 -0.75
0.75 0.75 -0.75
1 0.75 -0.75
0.75 0.5 -0.5
1 0.5 -0.5
0.75 0.75 -0.5
1 0.75 -0.5
0.75 0.75 -0.75
1 0.75 -0.75
0.75 1 -0.75
1 1 -0.75
0.75 0.75 -0.5
1 0.75 -0.5
0.75 1 -0.5
1 1 -0.5
0.5 0.75 -0.75
0.75 0.75 -0.75
0.5 1 -0.75
0.75 1 -0.75
0.5 0.75 -0.5
0.75 0.75 -0.5
0.5 1 -0.5
0.75 1 -0.5
0 0.5 -1
0.25 0.5 -1
0 0.75 -1
0.25 0.75 -1
0 0.5 -0.75
0.25 0.5 -0.75
0 0.75 -0.75
0.25 0.75 -0.75
0.25 0.5 -1
0.5 0.5 -1
0.25 0.75 -1
0.5 0.75 -1
0.25 0.5 -0.75
0.5 0.5 -0.75
0.25 0.75 -0.75
0.5 0.75 -0.75
0.25 0.75 -1
0.5 0.75 -1
0.25 1 -1
[...]
<CellData Scalars="attribute">
<DataArray type="Int32" Name="attribute" format="ascii">
1
1
1
1
1
1
1
1
1
1
1
1
1
1
1
1
1
1
1
1
1
1
1
1
1
1
1
1
1
1
1
1
1
1
1
1
1
1
1
1
1
1
1
1
1
1
1
1
1
1
1
1
1
1
1
1
1
1
1
1
1
1
1
1
1
1
1
1
1
1
1
1
1
1
1
1
1
1
1
1
1
1
1
1
1
1
1
1
1
1
1
1
1
1
1
1
1
1
1
1
1
1
1
1
1
1
1
1
1
1
1
1
1
1
1
1
1
1
1
1
1
1
1
1
1
1
1
1
1
1
1
1
1
1
1
1
1
1
1
1
1
1
1
1
1
1
1
1
1
1
1
1
1
1
1
1
1
1
1
1
1
1
1
1
1
1
1
1
1
1
1
1
1
1
1
1
1
1
1
1
1
1
1
1
1
1
1
1
1
1
1
1
1
1
1
1
1
1
1
1
1
1
1
1
1
1
1
1
1
1
1
1
1
1
1
1
1
1
1
1
1
1
1
1
1
1
1
1
1
1
1
1
1
1
1
1
1
1
1
1
1
1
1
1
1
1
1
1
1
1
1
1
1
1
1
1
1
1
1
1
1
1
1
1
1
1
1
1
1
1
1
1
1
1
1
1
1
1
1
1
1
1
1
1
1
1
1
1
1
1
1
1
1
1
1
1
1
1
1
1
1
1
1
1
1
1
1
1
1
1
1
1
1
1
1
1
1
1
1
1
1
1
1
1
1
1
1
1
1
1
1
1
1
1
1
1
1
1
1
1
1
1
1
1
1
1
1
1
1
1
1
1
1
1
1
1
1
1
1
1
1
1
1
1
1
1
1
1
1
1
1
1
1
1
1
1
1
1
1
1
1
1
1
1
1
1
1
1
1
1
1
1
1
1
1
1
1
1
1
1
1
1
1
1
1
1
1
1
1
1
1
1
1
1
1
1
1
1
1
1
1
1
1
1
1
1
1
1
1
1
1
1
1
1
1
1
1
1
1
1
1
1
1
1
1
1
1
1
</DataArray>
</CellData>
<PointData >
<DataArray type="Float64" Name="db_dt_field" NumberOfComponents="3" ComponentName0="0" ComponentName1="1" ComponentName2="2" format="ascii" >
-2.82842712 2.82842712 -2.82842712 
-2.84355696 2.82842712 -2.82842712 
-2.82842712 2.84486873 -2.82842712 
-2.84355696 2.84486873 -2.82842712 
-2.82842712 2.82842712 -2.8297389 
-2.84355696 2.82842712 -2.8297389 
-2.82842712 2.84486873 -2.8297389 
-2.84355696 2.84486873 -2.8297389 
-2.84355696 1.17157288 -2.82842712 
-2.84873332 1.17157288 -2.82842712 
-2.84355696 1.1832585 -2.82842712 
-2.84873332 1.1832585 -2.82842712 
-2.84355696 1.17157288 -2.83493639 
-2.84873332 1.17157288 -2.83493639 
-2.84355696 1.1832585 -2.83493639 
-2.84873332 1.1832585 -2.83493639 
-2.83898219 1.1832585 -1.17157288 
-2.84224421 1.1832585 -1.17157288 
-2.83898219 1.18844393 -1.17157288 
-2.84224421 1.18844393 -1.17157288 
-2.83898219 1.1832585 -1.17349628 
-2.84224421 1.1832585 -1.17349628 
-2.83898219 1.18844393 -1.17349628 
-2.84224421 1.18844393 -1.17349628 
-2.82842712 2.84486873 -1.17157288 
-2.83898219 2.84486873 -1.17157288 
-2.82842712 2.85217679 -1.17157288 
-2.83898219 2.85217679 -1.17157288 
-2.82842712 2.84486873 -1.16832587 
-2.83898219 2.84486873 -1.16832587 
-2.82842712 2.85217679 -1.16832587 
-2.83898219 2.85217679 -1.16832587 
-1.17157288 2.82842712 -2.8297389 
-1.18232002 2.82842712 -2.8297389 
-1.17157288 2.84013851 -2.8297389 
-1.18232002 2.84013851 -2.8297389 
-1.17157288 2.82842712 -2.83070313 
-1.18232002 2.82842712 -2.83070313 
-1.17157288 2.84013851 -2.83070313 
-1.18232002 2.84013851 -2.83070313 
-1.18232002 1.17157288 -2.83493639 
-1.18634932 1.17157288 -2.83493639 
-1.18232002 1.17853508 -2.83493639 
-1.18634932 1.17853508 -2.83493639 
-1.18232002 1.17157288 -2.8378693 
-1.18634932 1.17157288 -2.8378693 
-1.18232002 1.17853508 -2.8378693 
-1.18634932 1.17853508 -2.8378693 
-1.17772553 1.17853508 -1.17349628 
-1.17983597 1.17853508 -1.17349628 
-1.17772553 1.18165286 -1.17349628 
-1.17983597 1.18165286 -1.17349628 
-1.17772553 1.17853508 -1.17450363 
-1.17983597 1.17853508 -1.17450363 
-1.17772553 1.18165286 -1.17450363 
-1.17983597 1.18165286 -1.17450363 
-1.17157288 2.84013851 -1.16832587 
-1.17772553 2.84013851 -1.16832587 
-1.17157288 2.84532205 -1.16832587 
-1.17772553 2.84532205 -1.16832587 
-1.17157288 2.84013851 -1.16735676 
-1.17772553 2.84013851 -1.16735676 
-1.17157288 2.84532205 -1.16735676 
-1.17772553 2.84532205 -1.16735676 
-2.84873332 -1.17157288 -2.82842712 
-2.84355941 -1.17157288 -2.82842712 
-2.84873332 -1.16660935 -2.82842712 
-2.84355941 -1.16660935 -2.82842712 
-2.84873332 -1.17157288 -2.83856456 
-2.84355941 -1.17157288 -2.83856456 
-2.84873332 -1.16660935 -2.83856456 
-2.84355941 -1.16660935 -2.83856456 
-2.84355941 -2.82842712 -2.82842712 
-2.82842712 -2.82842712 -2.82842712 
-2.84355941 -2.82821316 -2.82842712 
-2.82842712 -2.82821316 -2.82842712 
-2.84355941 -2.82842712 -2.84377338 
-2.82842712 -2.82842712 -2.84377338 
-2.84355941 -2.82821316 -2.84377338 
-2.82842712 -2.82821316 -2.84377338 
-2.83896255 -2.82821316 -1.17157288 
-2.82842712 -2.82821316 -1.17157288 
-2.83896255 -2.82804435 -1.17157288 
-2.82842712 -2.82804435 -1.17157288 
-2.83896255 -2.82821316 -1.18227711 
-2.82842712 -2.82821316 -1.18227711 
-2.83896255 -2.82804435 -1.18227711 
-2.82842712 -2.82804435 -1.18227711 
-2.84224421 -1.16660935 -1.17157288 
-2.83896255 -1.16660935 -1.17157288 
-2.84224421 -1.16437328 -1.17157288 
-2.83896255 -1.16437328 -1.17157288 
-2.84224421 -1.16660935 -1.1770906 
-2.83896255 -1.16660935 -1.1770906 
-2.84224421 -1.16437328 -1.1770906 
-2.83896255 -1.16437328 -1.1770906 
-1.18634932 -1.17157288 -2.83856456 
-1.1823577 -1.17157288 -2.83856456 
-1.18634932 -1.17132179 -2.83856456 
-1.1823577 -1.17132179 -2.83856456 
-1.18634932 -1.17157288 -2.84280726 
-1.1823577 -1.17157288 -2.84280726 
-1.18634932 -1.17132179 -2.84280726 
-1.1823577 -1.17132179 -2.84280726 
-1.1823577 -2.82842712 -2.84377338 
-1.17157288 -2.82842712 -2.84377338 
-1.1823577 -2.832918 -2.84377338 
-1.17157288 -2.832918 -2.84377338 
-1.1823577 -2.82842712 -2.85006733 
-1.17157288 -2.82842712 -2.85006733 
-1.1823577 -2.832918 -2.85006733 
-1.17157288 -2.832918 -2.85006733 
-1.17774496 -2.832918 -1.18227711 
-1.17157288 -2.832918 -1.18227711 
-1.17774496 -2.83471417 -1.18227711 
-1.17157288 -2.83471417 -1.18227711 
-1.17774496 -2.832918 -1.18665302 
-1.17157288 -2.832918 -1.18665302 
-1.17774496 -2.83471417 -1.18665302 
-1.17157288 -2.83471417 -1.18665302 
-1.17983597 -1.17132179 -1.1770906 
-1.17774496 -1.17132179 -1.1770906 
-1.17983597 -1.1710908 -1.1770906 
-1.17774496 -1.1710908 -1.1770906 
-1.17983597 -1.17132179 -1.17941261 
-1.17774496 -1.17132179 -1.17941261 
-1.17983597 -1.1710908 -1.17941261 
-1.17774496 -1.1710908 -1.17941261 
-2.83986403 -1.16437328 1.17157288 
-2.83711906 -1.16437328 1.17157288 
-2.83986403 -1.16807416 1.17157288 
-2.83711906 -1.16807416 1.17157288 
-2.83986403 -1.16437328 1.17252878 
-2.83711906 -1.16437328 1.17252878 
-2.83986403 -1.16807416 1.17252878 
-2.83711906 -1.16807416 1.17252878 
-2.83711906 -2.82804435 1.17157288 
-2.82842712 -2.82804435 1.17157288 
-2.83711906 -2.83257414 1.17157288 
-2.82842712 -2.83257414 1.17157288 
-2.83711906 -2.82804435 1.16741073 
-2.82842712 -2.82804435 1.16741073 
-2.83711906 -2.83257414 1.16741073 
-2.82842712 -2.83257414 1.16741073 
-2.83638981 -2.83257414 2.82842712 
-2.82842712 -2.83257414 2.82842712 
-2.83638981 -2.84094652 2.82842712 
-2.82842712 -2.84094652 2.82842712 
-2.83638981 -2.83257414 2.82883682 
-2.82842712 -2.83257414 2.82883682 
-2.83638981 -2.84094652 2.82883682 
-2.82842712 -2.84094652 2.82883682 
-2.83913671 -1.16807416 2.82842712 
-2.83638981 -1.16807416 2.82842712 
-2.83913671 -1.17623544 2.82842712 
-2.83638981 -1.17623544 2.82842712 
-2.83913671 -1.16807416 2.8338415 
-2.83638981 -1.16807416 2.8338415 
-2.83913671 -1.17623544 2.8338415 
-2.83638981 -1.17623544 2.8338415 
-1.1773134 -1.1710908 1.17252878 
-1.17586259 -1.1710908 1.17252878 
-1.1773134 -1.17291154 1.17252878 
-1.17586259 -1.17291154 1.17252878 
-1.1773134 -1.1710908 1.17289871 
-1.17586259 -1.1710908 1.17289871 
-1.1773134 -1.17291154 1.17289871 
-1.17586259 -1.17291154 1.17289871 
-1.17586259 -2.83471417 1.16741073 
-1.17157288 -2.83471417 1.16741073 
-1.17586259 -2.83732935 1.16741073 
-1.17157288 -2.83732935 1.16741073 
-1.17586259 -2.83471417 1.16573619 
-1.17157288 -2.83471417 1.16573619 
-1.17586259 -2.83732935 1.16573619 
-1.17157288 -2.83732935 1.16573619 
-1.17506338 -2.83732935 2.82883682 
-1.17157288 -2.83732935 2.82883682 
-1.17506338 -2.84102856 2.82883682 
-1.17157288 -2.84102856 2.82883682 
-1.17506338 -2.83732935 2.82904553 
-1.17157288 -2.83732935 2.82904553 
-1.17506338 -2.84102856 2.82904553 
-1.17157288 -2.84102856 2.82904553 
-1.17635498 -1.17291154 2.8338415 
-1.17506338 -1.17291154 2.8338415 
-1.17635498 -1.17643058 2.8338415 
-1.17506338 -1.17643058 2.8338415 
-1.17635498 -1.17291154 2.83606894 
-1.17506338 -1.17291154 2.83606894 
-1.17635498 -1.17643058 2.83606894 
-1.17506338 -1.17643058 2.83606894 
-2.82842712 2.85217679 1.17157288 
-2.83735951 2.85217679 1.17157288 
-2.82842712 2.85168554 1.17157288 
-2.83735951 2.85168554 1.17157288 
-2.82842712 2.85217679 1.18099651 
-2.83735951 2.85217679 1.18099651 
-2.82842712 2.85168554 1.18099651 
-2.83735951 2.85168554 1.18099651 
-2.83735951 1.18844393 1.17157288 
-2.83986403 1.18844393 1.17157288 
-2.83735951 1.18655912 1.17157288 
-2.83986403 1.18655912 1.17157288 
-2.83735951 1.18844393 1.17596221 
-2.83986403 1.18844393 1.17596221 
-2.83735951 1.18655912 1.17596221 
-2.83986403 1.18655912 1.17596221 
-2.83892491 1.18655912 2.82842712 
-2.83913671 1.18655912 2.82842712 
-2.83892491 1.17835641 2.82842712 
-2.83913671 1.17835641 2.82842712 
-2.83892491 1.18655912 2.83684164 
-2.83913671 1.18655912 2.83684164 
-2.83892491 1.17835641 2.83684164 
-2.83913671 1.17835641 2.83684164 
-2.82842712 2.85168554 2.82842712 
-2.83892491 2.85168554 2.82842712 
-2.82842712 2.84964951 2.82842712 
-2.83892491 2.84964951 2.82842712 
-2.82842712 2.85168554 2.84096094 
-2.83892491 2.85168554 2.84096094 
-2.82842712 2.84964951 2.84096094 
-2.83892491 2.84964951 2.84096094 
-1.17157288 2.84532205 1.18099651 
-1.17598657 2.84532205 1.18099651 
-1.17157288 2.84612979 1.18099651 
-1.17598657 2.84612979 1.18099651 
-1.17157288 2.84532205 1.18460245 
-1.17598657 2.84532205 1.18460245 
-1.17157288 2.84612979 1.18460245 
-1.17598657 2.84612979 1.18460245 
-1.17598657 1.18165286 1.17596221 
-1.1773134 1.18165286 1.17596221 
-1.17598657 1.18132857 1.17596221 
-1.1773134 1.18132857 1.17596221 
-1.17598657 1.18165286 1.17761335 
-1.1773134 1.18165286 1.17761335 
-1.17598657 1.18132857 1.17761335 
-1.1773134 1.18132857 1.17761335 
-1.17650917 1.18132857 2.83684164 
-1.17635498 1.18132857 2.83684164 
-1.17650917 1.17780322 2.83684164 
-1.17635498 1.17780322 2.83684164 
-1.17650917 1.18132857 2.84021279 
-1.17635498 1.18132857 2.84021279 
-1.17650917 1.17780322 2.84021279 
-1.17635498 1.17780322 2.84021279 
-1.17157288 2.84612979 2.84096094 
-1.17650917 2.84612979 2.84096094 
-1.17157288 2.84608588 2.84096094 
-1.17650917 2.84608588 2.84096094 
-1.17157288 2.84612979 2.84594115 
-1.17650917 2.84612979 2.84594115 
-1.17157288 2.84608588 2.84594115 
-1.17650917 2.84608588 2.84594115 
1.17157288 2.82842712 -2.83070313 
1.16731373 2.82842712 -2.83070313 
1.17157288 2.83813918 -2.83070313 
1.16731373 2.83813918 -2.83070313 
1.17157288 2.82842712 -2.83615604 
1.16731373 2.82842712 -2.83615604 
1.17157288 2.83813918 -2.83615604 
1.16731373 2.83813918 -2.83615604 
1.16731373 1.17157288 -2.8378693 
1.1649268 1.17157288 -2.8378693 
1.16731373 1.17651315 -2.8378693 
1.1649268 1.17651315 -2.8378693 
1.16731373 1.17157288 -2.84042264 
1.1649268 1.17157288 -2.84042264 
1.16731373 1.17651315 -2.84042264 
1.1649268 1.17651315 -2.84042264 
1.1719066 1.17651315 -1.17450363 
1.17143694 1.17651315 -1.17450363 
1.1719066 1.17864365 -1.17450363 
1.17143694 1.17864365 -1.17450363 
1.1719066 1.17651315 -1.17616447 
1.17143694 1.17651315 -1.17616447 
1.1719066 1.17864365 -1.17616447 
1.17143694 1.17864365 -1.17616447 
1.17157288 2.83813918 -1.16735676 
1.1719066 2.83813918 -1.16735676 
1.17157288 2.84227439 -1.16735676 
1.1719066 2.84227439 -1.16735676 
1.17157288 2.83813918 -1.17182569 
1.1719066 2.83813918 -1.17182569 
1.17157288 2.84227439 -1.17182569 
1.1719066 2.84227439 -1.17182569 
2.82842712 2.82842712 -2.83615604 
2.83123107 2.82842712 -2.83615604 
2.82842712 2.8375771 -2.83615604 
2.83123107 2.8375771 -2.83615604 
2.82842712 2.82842712 -2.84810995 
2.83123107 2.82842712 -2.84810995 
2.82842712 2.8375771 -2.84810995 
2.83123107 2.8375771 -2.84810995 
2.83123107 1.17157288 -2.84042264 
2.82774572 1.17157288 -2.84042264 
2.83123107 1.17563164 -2.84042264 
2.82774572 1.17563164 -2.84042264 
2.83123107 1.17157288 -2.84099606 
2.82774572 1.17157288 -2.84099606 
2.83123107 1.17563164 -2.84099606 
2.82774572 1.17563164 -2.84099606 
2.83546836 1.17563164 -1.17616447 
2.83424493 1.17563164 -1.17616447 
2.83546836 1.17729298 -1.17616447 
2.83424493 1.17729298 -1.17616447 
2.83546836 1.17563164 -1.17660238 
2.83424493 1.17563164 -1.17660238 
2.83546836 1.17729298 -1.17660238 
2.83424493 1.17729298 -1.17660238 
2.82842712 2.8375771 -1.17182569 
2.83546836 2.8375771 -1.17182569 
2.82842712 2.84130955 -1.17182569 
2.83546836 2.84130955 -1.17182569 
2.82842712 2.8375771 -1.18259938 
2.83546836 2.8375771 -1.18259938 
2.82842712 2.84130955 -1.18259938 
2.83546836 2.84130955 -1.18259938 
1.1649268 -1.17157288 -2.84280726 
1.16697403 -1.17157288 -2.84280726 
1.1649268 -1.17336616 -2.84280726 
1.16697403 -1.17336616 -2.84280726 
1.1649268 -1.17157288 -2.8430612 
1.16697403 -1.17157288 -2.8430612 
1.1649268 -1.17336616 -2.8430612 
1.16697403 -1.17336616 -2.8430612 
1.16697403 -2.82842712 -2.85006733 
1.17157288 -2.82842712 -2.85006733 
1.16697403 -2.83496132 -2.85006733 
1.17157288 -2.83496132 -2.85006733 
1.16697403 -2.82842712 -2.84813198 
1.17157288 -2.82842712 -2.84813198 
1.16697403 -2.83496132 -2.84813198 
1.17157288 -2.83496132 -2.84813198 
1.17160701 -2.83496132 -1.18665302 
1.17157288 -2.83496132 -1.18665302 
1.17160701 -2.83762724 -1.18665302 
1.17157288 -2.83762724 -1.18665302 
1.17160701 -2.83496132 -1.18395295 
1.17157288 -2.83496132 -1.18395295 
1.17160701 -2.83762724 -1.18395295 
1.17157288 -2.83762724 -1.18395295 
1.17143694 -1.17336616 -1.17941261 
1.17160701 -1.17336616 -1.17941261 
1.17143694 -1.17405505 -1.17941261 
1.17160701 -1.17405505 -1.17941261 
1.17143694 -1.17336616 -1.1788938 
1.17160701 -1.17336616 -1.1788938 
1.17143694 -1.17405505 -1.1788938 
1.17160701 -1.17405505 -1.1788938 
2.82774572 -1.17157288 -2.8430612 
2.82825066 -1.17157288 -2.8430612 
2.82774572 -1.1743485 -2.8430612 
2.82825066 -1.1743485 -2.8430612 
2.82774572 -1.17157288 -2.84079052 
2.82825066 -1.17157288 -2.84079052 
2.82774572 -1.1743485 -2.84079052 
2.82825066 -1.1743485 -2.84079052 
2.82825066 -2.82842712 -2.84813198 
2.82842712 -2.82842712 -2.84813198 
2.82825066 -2.8359502 -2.84813198 
2.82842712 -2.8359502 -2.84813198 
2.82825066 -2.82842712 -2.84078538 
2.82842712 -2.82842712 -2.84078538 
2.82825066 -2.8359502 -2.84078538 
2.82842712 -2.8359502 -2.84078538 
2.83289242 -2.8359502 -1.18395295 
2.82842712 -2.8359502 -1.18395295 
2.83289242 -2.83904542 -1.18395295 
2.82842712 -2.83904542 -1.18395295 
2.83289242 -2.8359502 -1.17639243 
2.82842712 -2.8359502 -1.17639243 
2.83289242 -2.83904542 -1.17639243 
2.82842712 -2.83904542 -1.17639243 
2.83424493 -1.1743485 -1.1788938 
2.83289242 -1.1743485 -1.1788938 
2.83424493 -1.17549592 -1.1788938 
2.83289242 -1.17549592 -1.1788938 
2.83424493 -1.1743485 -1.17639385 
2.83289242 -1.1743485 -1.17639385 
2.83424493 -1.17549592 -1.17639385 
2.83289242 -1.17549592 -1.17639385 
1.17410179 -1.17405505 1.17289871 
1.17353931 -1.17405505 1.17289871 
1.17410179 -1.17512424 1.17289871 
1.17353931 -1.17512424 1.17289871 
1.17410179 -1.17405505 1.17453039 
1.17353931 -1.17405505 1.17453039 
1.17410179 -1.17512424 1.17453039 
1.17353931 -1.17512424 1.17453039 
1.17353931 -2.83762724 1.16573619 
1.17157288 -2.83762724 1.16573619 
1.17353931 -2.83944521 1.16573619 
1.17157288 -2.83944521 1.16573619 
1.17353931 -2.83762724 1.16952059 
1.17157288 -2.83762724 1.16952059 
1.17353931 -2.83944521 1.16952059 
1.17157288 -2.83944521 1.16952059 
1.17442943 -2.83944521 2.82904553 
1.17157288 -2.83944521 2.82904553 
1.17442943 -2.84114694 2.82904553 
1.17157288 -2.84114694 2.82904553 
1.17442943 -2.83944521 2.83360381 
1.17157288 -2.83944521 2.83360381 
1.17442943 -2.84114694 2.83360381 
1.17157288 -2.84114694 2.83360381 
1.17532166 -1.17512424 2.83606894 
1.17442943 -1.17512424 2.83606894 
1.17532166 -1.17668893 2.83606894 
1.17442943 -1.17668893 2.83606894 
1.17532166 -1.17512424 2.83852586 
1.17442943 -1.17512424 2.83852586 
1.17532166 -1.17668893 2.83852586 
1.17442943 -1.17668893 2.83852586 
2.83698473 -1.17549592 1.17453039 
2.83485187 -1.17549592 1.17453039 
2.83698473 -1.17622495 1.17453039 
2.83485187 -1.17622495 1.17453039 
2.83698473 -1.17549592 1.17739229 
2.83485187 -1.17549592 1.17739229 
2.83698473 -1.17622495 1.17739229 
2.83485187 -1.17622495 1.17739229 
2.83485187 -2.83904542 1.16952059 
2.82842712 -2.83904542 1.16952059 
2.83485187 -2.84049489 1.16952059 
2.82842712 -2.84049489 1.16952059 
2.83485187 -2.83904542 1.1773948 
2.82842712 -2.83904542 1.1773948 
2.83485187 -2.84049489 1.1773948 
2.82842712 -2.84049489 1.1773948 
2.83580189 -2.84049489 2.83360381 
2.82842712 -2.84049489 2.83360381 
2.83580189 -2.84124437 2.83360381 
2.82842712 -2.84124437 2.83360381 
2.83580189 -2.84049489 2.84172807 
2.82842712 -2.84049489 2.84172807 
2.83580189 -2.84124437 2.84172807 
2.82842712 -2.84124437 2.84172807 
2.83833583 -1.17622495 2.83852586 
2.83580189 -1.17622495 2.83852586 
2.83833583 -1.17687203 2.83852586 
2.83580189 -1.17687203 2.83852586 
2.83833583 -1.17622495 2.84170689 
2.83580189 -1.17622495 2.84170689 
2.83833583 -1.17687203 2.84170689 
2.83580189 -1.17687203 2.84170689 
1.17157288 2.84227439 1.18460245 
1.17375771 2.84227439 1.18460245 
1.17157288 2.84304325 1.18460245 
1.17375771 2.84304325 1.18460245 
1.17157288 2.84227439 1.18164877 
1.17375771 2.84227439 1.18164877 
1.17157288 2.84304325 1.18164877 
1.17375771 2.84304325 1.18164877 
1.17375771 1.17864365 1.17761335 
1.17410179 1.17864365 1.17761335 
1.17375771 1.17862816 1.17761335 
1.17410179 1.17862816 1.17761335 
1.17375771 1.17864365 1.17728475 
1.17410179 1.17864365 1.17728475 
1.17375771 1.17862816 1.17728475 
1.17410179 1.17862816 1.17728475 
1.17463356 1.17862816 2.84021279 
1.17532166 1.17862816 2.84021279 
1.17463356 1.17710754 2.84021279 
1.17532166 1.17710754 2.84021279 
1.17463356 1.17862816 2.84104531 
1.17532166 1.17862816 2.84104531 
1.17463356 1.17710754 2.84104531 
1.17532166 1.17710754 2.84104531 
1.17157288 2.84304325 2.84594115 
1.17463356 2.84304325 2.84594115 
1.17157288 2.84120607 2.84594115 
1.17463356 2.84120607 2.84594115 
1.17157288 2.84304325 2.84471764 
1.17463356 2.84304325 2.84471764 
1.17157288 2.84120607 2.84471764 
1.17463356 2.84120607 2.84471764 
2.82842712 2.84130955 1.18164877 
2.83690664 2.84130955 1.18164877 
2.82842712 2.8418288 1.18164877 
2.83690664 2.8418288 1.18164877 
2.82842712 2.84130955 1.17265 
2.83690664 2.84130955 1.17265 
2.82842712 2.8418288 1.17265 
2.83690664 2.8418288 1.17265 
2.83690664 1.17729298 1.17728475 
2.83698473 1.17729298 1.17728475 
2.83690664 1.17732519 1.17728475 
2.83698473 1.17732519 1.17728475 
2.83690664 1.17729298 1.17717445 
2.83698473 1.17729298 1.17717445 
2.83690664 1.17732519 1.17717445 
2.83698473 1.17732519 1.17717445 
2.83826402 1.17732519 2.84104531 
2.83833583 1.17732519 2.84104531 
2.83826402 1.17677434 2.84104531 
2.83833583 1.17677434 2.84104531 
2.83826402 1.17732519 2.84152434 
2.83833583 1.17732519 2.84152434 
2.83826402 1.17677434 2.84152434 
2.83833583 1.17677434 2.84152434 
2.82842712 2.8418288 2.84471764 
2.83826402 2.8418288 2.84471764 
2.82842712 2.83848351 2.84471764 
2.83826402 2.83848351 2.84471764 
2.82842712 2.8418288 2.83822604 
2.83826402 2.8418288 2.83822604 
2.82842712 2.83848351 2.83822604 
2.83826402 2.83848351 2.83822604 
-2.84810979 2.84964951 2.82842712 
-2.83978599 2.84964951 2.82842712 
-2.84810979 2.83206031 2.82842712 
-2.83978599 2.83206031 2.82842712 
-2.84810979 2.84964951 2.83769252 
-2.83978599 2.84964951 2.83769252 
-2.84810979 2.83206031 2.83769252 
-2.83978599 2.83206031 2.83769252 
-2.83978599 1.17835641 2.82842712 
-2.83888408 1.17835641 2.82842712 
-2.83978599 1.16976417 2.82842712 
-2.83888408 1.16976417 2.82842712 
-2.83978599 1.17835641 2.83611746 
-2.83888408 1.17835641 2.83611746 
-2.83978599 1.16976417 2.83611746 
-2.83888408 1.16976417 2.83611746 
-2.84031771 1.16976417 1.17157288 
-2.83782721 1.16976417 1.17157288 
-2.84031771 1.1648631 1.17157288 
-2.83782721 1.1648631 1.17157288 
-2.84031771 1.16976417 1.17398345 
-2.83782721 1.16976417 1.17398345 
-2.84031771 1.1648631 1.17398345 