<VTKFile type="UnstructuredGrid" version="2.2" byte_order="LittleEndian">
<UnstructuredGrid>
<Piece NumberOfPoints="2016" NumberOfCells="252">
<Points>
<DataArray type="Float64" NumberOfComponents="3" format="ascii">
-0.4 0.1 0.166666667
-0.291666667 0.125 0.166666667
-0.341506351 0.25 0.166666667
-0.25 0.25 0.166666667
-0.4 0.1 0.5
-0.291666667 0.125 0.5
-0.341506351 0.25 0.5
-0.25 0.25 0.5
-0.5 0 0.166666667
-0.333333333 0 0.166666667
-0.4 0.1 0.166666667
-0.291666667 0.125 0.166666667
-0.5 0 0.5
-0.333333333 0 0.5
-0.4 0.1 0.5
-0.291666667 0.125 0.5
-0.433012702 0.25 0.166666667
-0.5 0 0.166666667
-0.341506351 0.25 0.166666667
-0.4 0.1 0.166666667
-0.433012702 0.25 0.5
-0.5 0 0.5
-0.341506351 0.25 0.5
-0.4 0.1 0.5
-0.25 0.359807621 0.166666667
-0.341506351 0.25 0.166666667
-0.125 0.375 0.166666667
-0.25 0.25 0.166666667
-0.25 0.359807621 0.5
-0.341506351 0.25 0.5
-0.125 0.375 0.5
-0.25 0.25 0.5
-0.25 0.433012702 0.166666667
-0.433012702 0.25 0.166666667
-0.25 0.359807621 0.166666667
-0.341506351 0.25 0.166666667
-0.25 0.433012702 0.5
-0.433012702 0.25 0.5
-0.25 0.359807621 0.5
-0.341506351 0.25 0.5
0 0.5 0.166666667
-0.25 0.433012702 0.166666667
-0.125 0.375 0.166666667
-0.25 0.359807621 0.166666667
0 0.5 0.5
-0.25 0.433012702 0.5
-0.125 0.375 0.5
-0.25 0.359807621 0.5
-0.1 0.25 0.166666667
-0.125 0.375 0.166666667
-0.125 0.125 0.166666667
-0.25 0.25 0.166666667
-0.1 0.25 0.5
-0.125 0.375 0.5
-0.125 0.125 0.5
-0.25 0.25 0.5
0 0.25 0.166666667
0 0.5 0.166666667
-0.1 0.25 0.166666667
-0.125 0.375 0.166666667
0 0.25 0.5
0 0.5 0.5
-0.1 0.25 0.5
-0.125 0.375 0.5
0 0 0.166666667
0 0.25 0.166666667
-0.125 0.125 0.166666667
-0.1 0.25 0.166666667
0 0 0.5
0 0.25 0.5
-0.125 0.125 0.5
-0.1 0.25 0.5
-0.2 0.1 0.166666667
-0.125 0.125 0.166666667
-0.291666667 0.125 0.166666667
-0.25 0.25 0.166666667
-0.2 0.1 0.5
-0.125 0.125 0.5
-0.291666667 0.125 0.5
-0.25 0.25 0.5
-0.166666667 0 0.166666667
0 0 0.166666667
-0.2 0.1 0.166666667
-0.125 0.125 0.166666667
-0.166666667 0 0.5
0 0 0.5
-0.2 0.1 0.5
-0.125 0.125 0.5
-0.333333333 0 0.166666667
-0.166666667 0 0.166666667
-0.291666667 0.125 0.166666667
-0.2 0.1 0.166666667
-0.333333333 0 0.5
-0.166666667 0 0.5
-0.291666667 0.125 0.5
-0.2 0.1 0.5
-0.4 0.1 -0.166666667
-0.291666667 0.125 -0.166666667
-0.341506351 0.25 -0.166666667
-0.25 0.25 -0.166666667
-0.4 0.1 0.166666667
-0.291666667 0.125 0.166666667
-0.341506351 0.25 0.166666667
-0.25 0.25 0.166666667
-0.5 0 -0.166666667
-0.333333333 0 -0.166666667
-0.4 0.1 -0.166666667
-0.291666667 0.125 -0.166666667
-0.5 0 0.166666667
-0.333333333 0 0.166666667
-0.4 0.1 0.166666667
-0.291666667 0.125 0.166666667
-0.433012702 0.25 -0.166666667
-0.5 0 -0.166666667
-0.341506351 0.25 -0.166666667
-0.4 0.1 -0.166666667
-0.433012702 0.25 0.166666667
-0.5 0 0.166666667
-0.341506351 0.25 0.166666667
-0.4 0.1 0.166666667
-0.25 0.359807621 -0.166666667
-0.341506351 0.25 -0.166666667
-0.125 0.375 -0.166666667
-0.25 0.25 -0.166666667
-0.25 0.359807621 0.166666667
-0.341506351 0.25 0.166666667
-0.125 0.375 0.166666667
-0.25 0.25 0.166666667
-0.25 0.433012702 -0.166666667
-0.433012702 0.25 -0.166666667
-0.25 0.359807621 -0.166666667
-0.341506351 0.25 -0.166666667
-0.25 0.433012702 0.166666667
-0.433012702 0.25 0.166666667
-0.25 0.359807621 0.166666667
-0.341506351 0.25 0.166666667
0 0.5 -0.166666667
-0.25 0.433012702 -0.166666667
-0.125 0.375 -0.166666667
-0.25 0.359807621 -0.166666667
0 0.5 0.166666667
-0.25 0.433012702 0.166666667
-0.125 0.375 0.166666667
-0.25 0.359807621 0.166666667
-0.1 0.25 -0.166666667
-0.125 0.375 -0.166666667
-0.125 0.125 -0.166666667
-0.25 0.25 -0.166666667
-0.1 0.25 0.166666667
-0.125 0.375 0.166666667
-0.125 0.125 0.166666667
-0.25 0.25 0.166666667
0 0.25 -0.166666667
0 0.5 -0.166666667
-0.1 0.25 -0.166666667
-0.125 0.375 -0.166666667
0 0.25 0.166666667
0 0.5 0.166666667
-0.1 0.25 0.166666667
-0.125 0.375 0.166666667
0 0 -0.166666667
0 0.25 -0.166666667
-0.125 0.125 -0.166666667
-0.1 0.25 -0.166666667
0 0 0.166666667
0 0.25 0.166666667
-0.125 0.125 0.166666667
-0.1 0.25 0.166666667
-0.2 0.1 -0.166666667
-0.125 0.125 -0.166666667
-0.291666667 0.125 -0.166666667
-0.25 0.25 -0.166666667
-0.2 0.1 0.166666667
-0.125 0.125 0.166666667
-0.291666667 0.125 0.166666667
-0.25 0.25 0.166666667
-0.166666667 0 -0.166666667
0 0 -0.166666667
-0.2 0.1 -0.166666667
-0.125 0.125 -0.166666667
-0.166666667 0 0.166666667
0 0 0.166666667
-0.2 0.1 0.166666667
-0.125 0.125 0.166666667
-0.333333333 0 -0.166666667
-0.166666667 0 -0.166666667
-0.291666667 0.125 -0.166666667
-0.2 0.1 -0.166666667
-0.333333333 0 0.166666667
-0.166666667 0 0.166666667
-0.291666667 0.125 0.166666667
-0.2 0.1 0.166666667
-0.4 0.1 -0.5
-0.291666667 0.125 -0.5
-0.341506351 0.25 -0.5
-0.25 0.25 -0.5
-0.4 0.1 -0.166666667
-0.291666667 0.125 -0.166666667
-0.341506351 0.25 -0.166666667
-0.25 0.25 -0.166666667
-0.5 0 -0.5
-0.333333333 0 -0.5
-0.4 0.1 -0.5
-0.291666667 0.125 -0.5
-0.5 0 -0.166666667
-0.333333333 0 -0.166666667
-0.4 0.1 -0.166666667
-0.291666667 0.125 -0.166666667
-0.433012702 0.25 -0.5
-0.5 0 -0.5
-0.341506351 0.25 -0.5
-0.4 0.1 -0.5
-0.433012702 0.25 -0.166666667
-0.5 0 -0.166666667
-0.341506351 0.25 -0.166666667
-0.4 0.1 -0.166666667
-0.25 0.359807621 -0.5
-0.341506351 0.25 -0.5
-0.125 0.375 -0.5
-0.25 0.25 -0.5
-0.25 0.359807621 -0.166666667
-0.341506351 0.25 -0.166666667
-0.125 0.375 -0.166666667
-0.25 0.25 -0.166666667
-0.25 0.433012702 -0.5
-0.433012702 0.25 -0.5
-0.25 0.359807621 -0.5
-0.341506351 0.25 -0.5
-0.25 0.433012702 -0.166666667
-0.433012702 0.25 -0.166666667
-0.25 0.359807621 -0.166666667
-0.341506351 0.25 -0.166666667
0 0.5 -0.5
-0.25 0.433012702 -0.5
-0.125 0.375 -0.5
-0.25 0.359807621 -0.5
0 0.5 -0.166666667
-0.25 0.433012702 -0.166666667
-0.125 0.375 -0.166666667
-0.25 0.359807621 -0.166666667
-0.1 0.25 -0.5
-0.125 0.375 -0.5
-0.125 0.125 -0.5
-0.25 0.25 -0.5
-0.1 0.25 -0.166666667
-0.125 0.375 -0.166666667
-0.125 0.125 -0.166666667
-0.25 0.25 -0.166666667
0 0.25 -0.5
0 0.5 -0.5
-0.1 0.25 -0.5
-0.125 0.375 -0.5
0 0.25 -0.166666667
0 0.5 -0.166666667
-0.1 0.25 -0.166666667
-0.125 0.375 -0.166666667
0 0 -0.5
0 0.25 -0.5
-0.125 0.125 -0.5
-0.1 0.25 -0.5
0 0 -0.166666667
0 0.25 -0.166666667
-0.125 0.125 -0.166666667
-0.1 0.25 -0.166666667
-0.2 0.1 -0.5
-0.125 0.125 -0.5
-0.291666667 0.125 -0.5
-0.25 0.25 -0.5
-0.2 0.1 -0.166666667
-0.125 0.125 -0.166666667
-0.291666667 0.125 -0.166666667
-0.25 0.25 -0.166666667
-0.166666667 0 -0.5
0 0 -0.5
-0.2 0.1 -0.5
-0.125 0.125 -0.5
-0.166666667 0 -0.166666667
0 0 -0.166666667
-0.2 0.1 -0.166666667
-0.125 0.125 -0.166666667
-0.333333333 0 -0.5
-0.166666667 0 -0.5
-0.291666667 0.125 -0.5
-0.2 0.1 -0.5
-0.333333333 0 -0.166666667
-0.166666667 0 -0.166666667
-0.291666667 0.125 -0.166666667
-0.2 0.1 -0.166666667
0.1 0.1 0.166666667
0.208333333 0.125 0.166666667
0.125 0.25 0.166666667
0.25 0.25 0.166666667
0.1 0.1 0.5
0.208333333 0.125 0.5
0.125 0.25 0.5
0.25 0.25 0.5
0 0 0.166666667
0.166666667 0 0.166666667
0.1 0.1 0.166666667
0.208333333 0.125 0.166666667
0 0 0.5
0.166666667 0 0.5
0.1 0.1 0.5
0.208333333 0.125 0.5
0 0.25 0.166666667
0 0 0.166666667
0.125 0.25 0.166666667
0.1 0.1 0.166666667
0 0.25 0.5
0 0 0.5
0.125 0.25 0.5
0.1 0.1 0.5
0.1 0.4 0.166666667
0.125 0.25 0.166666667
0.25 0.341506351 0.166666667
0.25 0.25 0.166666667
0.1 0.4 0.5
0.125 0.25 0.5
0.25 0.341506351 0.5
0.25 0.25 0.5
0 0.5 0.166666667
0 0.25 0.166666667
0.1 0.4 0.166666667
0.125 0.25 0.166666667
0 0.5 0.5
0 0.25 0.5
0.1 0.4 0.5
0.125 0.25 0.5
0.25 0.433012702 0.166666667
0 0.5 0.166666667
0.25 0.341506351 0.166666667
0.1 0.4 0.166666667
0.25 0.433012702 0.5
0 0.5 0.5
0.25 0.341506351 0.5
0.1 0.4 0.5
0.359807621 0.25 0.166666667
0.25 0.341506351 0.166666667
0.375 0.125 0.166666667
0.25 0.25 0.166666667
0.359807621 0.25 0.5
0.25 0.341506351 0.5
0.375 0.125 0.5
0.25 0.25 0.5
0.433012702 0.25 0.166666667
0.25 0.433012702 0.166666667
0.359807621 0.25 0.166666667
0.25 0.341506351 0.166666667
0.433012702 0.25 0.5
0.25 0.433012702 0.5
0.359807621 0.25 0.5
0.25 0.341506351 0.5
0.5 0 0.166666667
0.433012702 0.25 0.166666667
0.375 0.125 0.166666667
0.359807621 0.25 0.166666667
0.5 0 0.5
0.433012702 0.25 0.5
0.375 0.125 0.5
0.359807621 0.25 0.5
0.3 0.1 0.166666667
0.375 0.125 0.166666667
0.208333333 0.125 0.166666667
0.25 0.25 0.166666667
0.3 0.1 0.5
0.375 0.125 0.5
0.208333333 0.125 0.5
0.25 0.25 0.5
0.333333333 0 0.166666667
0.5 0 0.166666667
0.3 0.1 0.166666667
0.375 0.125 0.166666667
0.333333333 0 0.5
0.5 0 0.5
0.3 0.1 0.5
0.375 0.125 0.5
0.166666667 0 0.166666667
0.333333333 0 0.166666667
0.208333333 0.125 0.166666667
0.3 0.1 0.166666667
0.166666667 0 0.5
0.333333333 0 0.5
0.208333333 0.125 0.5
0.3 0.1 0.5
0.1 0.1 -0.166666667
0.208333333 0.125 -0.166666667
0.125 0.25 -0.166666667
0.25 0.25 -0.166666667
0.1 0.1 0.166666667
0.208333333 0.125 0.166666667
0.125 0.25 0.166666667
0.25 0.25 0.166666667
0 0 -0.166666667
0.166666667 0 -0.166666667
0.1 0.1 -0.166666667
0.208333333 0.125 -0.166666667
0 0 0.166666667
0.166666667 0 0.166666667
0.1 0.1 0.166666667
0.208333333 0.125 0.166666667
0 0.25 -0.166666667
0 0 -0.166666667
0.125 0.25 -0.166666667
0.1 0.1 -0.166666667
0 0.25 0.166666667
0 0 0.166666667
0.125 0.25 0.166666667
0.1 0.1 0.166666667
0.1 0.4 -0.166666667
0.125 0.25 -0.166666667
0.25 0.341506351 -0.166666667
0.25 0.25 -0.166666667
0.1 0.4 0.166666667
0.125 0.25 0.166666667
0.25 0.341506351 0.166666667
0.25 0.25 0.166666667
0 0.5 -0.166666667
0 0.25 -0.166666667
0.1 0.4 -0.166666667
0.125 0.25 -0.166666667
0 0.5 0.166666667
0 0.25 0.166666667
0.1 0.4 0.166666667
0.125 0.25 0.166666667
0.25 0.433012702 -0.166666667
0 0.5 -0.166666667
0.25 0.341506351 -0.166666667
0.1 0.4 -0.166666667
0.25 0.433012702 0.166666667
0 0.5 0.166666667
0.25 0.341506351 0.166666667
0.1 0.4 0.166666667
0.359807621 0.25 -0.166666667
0.25 0.341506351 -0.166666667
0.375 0.125 -0.166666667
0.25 0.25 -0.166666667
0.359807621 0.25 0.166666667
0.25 0.341506351 0.166666667
0.375 0.125 0.166666667
0.25 0.25 0.166666667
0.433012702 0.25 -0.166666667
0.25 0.433012702 -0.166666667
[...]
<CellData Scalars="attribute">
<DataArray type="Int32" Name="attribute" format="ascii">
1
1
1
1
1
1
1
1
1
1
1
1
1
1
1
1
1
1
1
1
1
1
1
1
1
1
1
1
1
1
1
1
1
1
1
1
1
1
1
1
1
1
1
1
1
1
1
1
1
1
1
1
1
1
1
1
1
1
1
1
1
1
1
1
1
1
1
1
1
1
1
1
1
1
1
1
1
1
1
1
1
1
1
1
1
1
1
1
1
1
1
1
1
1
1
1
1
1
1
1
1
1
1
1
1
1
1
1
1
1
1
1
1
1
1
1
1
1
1
1
1
1
1
1
1
1
1
1
1
1
1
1
1
1
1
1
1
1
1
1
1
1
1
1
2
2
2
2
2
2
2
2
2
2
2
2
2
2
2
2
2
2
2
2
2
2
2
2
2
2
2
2
2
2
2
2
2
2
2
2
2
2
2
2
2
2
2
2
2
2
2
2
2
2
2
2
2
2
2
2
2
2
2
2
2
2
2
2
2
2
2
2
2
2
2
2
2
2
2
2
2
2
2
2
2
2
2
2
2
2
2
2
2
2
2
2
2
2
2
2
2
2
2
2
2
2
2
2
2
2
2
2
</DataArray>
</CellData>
<PointData >
<DataArray type="Float64" Name="a_field" NumberOfComponents="3" ComponentName0="0" ComponentName1="1" ComponentName2="2" format="ascii" >
1.35165514e-14 -1.01456526e-14 -0.105089665 
1.23723279e-14 -5.18735089e-15 -0.122687291 
1.99598271e-14 -1.26582573e-14 -0.103999787 
1.99598271e-14 -7.71651729e-15 -0.116868668 
0 0 -0.105089665 
0 0 -0.122687291 
0 0 -0.103999787 
0 0 -0.116868668 
2.07767425e-14 -3.45512724e-14 -0.0860315003 
2.07767425e-14 -3.56729899e-14 -0.120156267 
1.866018e-14 -3.24347099e-14 -0.105089665 
1.92933698e-14 -3.51785324e-14 -0.122687291 
0 0 -0.0860315003 
0 0 -0.120156267 
0 0 -0.105089665 
0 0 -0.122687291 
-3.49520849e-14 2.4879579e-14 -0.084532009 
-1.81086708e-14 4.33414086e-15 -0.0860315003 
-3.49520849e-14 8.75506342e-15 -0.103999787 
-1.4588758e-14 8.14228112e-16 -0.105089665 
0 0 -0.084532009 
0 0 -0.0860315003 
0 0 -0.103999787 
0 0 -0.105089665 
-1.98841769e-14 6.12162987e-14 -0.0996731119 
1.99598271e-14 2.8012962e-14 -0.103999787 
-1.57757664e-14 2.74130797e-14 -0.1093498 
1.99598271e-14 -8.32251385e-15 -0.116868668 
0 0 -0.0996731119 
0 0 -0.103999787 
0 0 -0.1093498 
0 0 -0.116868668 
7.07158338e-15 2.09860047e-16 -0.0844451642 
-3.49520849e-14 2.75762353e-14 -0.084532009 
5.33235495e-14 2.09860047e-16 -0.0996731119 
-3.49520849e-14 7.37728887e-14 -0.103999787 
0 0 -0.0844451642 
0 0 -0.084532009 
0 0 -0.0996731119 
0 0 -0.103999787 
-3.20390002e-15 9.28621004e-15 -0.0866549813 
-3.76385352e-15 2.09860047e-16 -0.0844451642 
-1.50072067e-14 2.10895168e-14 -0.1093498 
-1.24695135e-14 2.09860047e-16 -0.0996731119 
0 0 -0.0866549813 
0 0 -0.0844451642 
0 0 -0.1093498 
0 0 -0.0996731119 
-6.93181893e-14 1.2057238e-14 -0.129169507 
-1.19029688e-14 2.35402821e-14 -0.1093498 
-1.21805377e-14 6.29707703e-16 -0.140172056 
-5.86466062e-16 1.22237793e-14 -0.116868668 
0 0 -0.129169507 
0 0 -0.1093498 
0 0 -0.140172056 
0 0 -0.116868668 
8.28399371e-15 1.28600634e-14 -0.133345996 
-6.77775336e-15 1.28600634e-14 -0.0866549813 
8.28399371e-15 2.75776746e-14 -0.129169507 
-1.65321382e-14 2.26144482e-14 -0.1093498 
0 0 -0.133345996 
0 0 -0.0866549813 
0 0 -0.129169507 
0 0 -0.1093498 
-1.25773965e-14 1.6730876e-14 -0.151197415 
8.28399371e-15 1.6730876e-14 -0.133345996 
-2.59288935e-14 3.37937888e-15 -0.140172056 
8.28399371e-15 -3.46319858e-15 -0.129169507 
0 0 -0.151197415 
0 0 -0.133345996 
0 0 -0.140172056 
0 0 -0.129169507 
-9.91041325e-15 -4.67721992e-14 -0.134876132 
-2.23284211e-14 -9.51817569e-15 -0.140172056 
2.34269392e-15 -1.84413955e-15 -0.122687291 
-1.04051152e-14 2.40513016e-15 -0.116868668 
0 0 -0.134876132 
0 0 -0.140172056 
0 0 -0.122687291 
0 0 -0.116868668 
-4.131419e-14 -2.70400258e-14 -0.140969606 
-4.14080946e-14 -1.20998222e-14 -0.151197415 
-1.89234906e-14 -1.97329671e-14 -0.134876132 
-2.64529278e-14 2.85534459e-15 -0.140172056 
0 0 -0.140969606 
0 0 -0.151197415 
0 0 -0.134876132 
0 0 -0.140172056 
-1.16803181e-14 -2.48539697e-14 -0.120156267 
-1.17742227e-14 -1.71933701e-14 -0.140969606 
-4.57834796e-15 -2.72212931e-14 -0.122687291 
-8.9733589e-16 -1.37242488e-14 -0.134876132 
0 0 -0.120156267 
0 0 -0.140969606 
0 0 -0.122687291 
0 0 -0.134876132 
-1.01933194e-14 -1.30745929e-14 -0.105089665 
-1.20125661e-14 -5.19119043e-15 -0.122687291 
3.64150794e-16 -1.71915592e-14 -0.103999787 
3.64150794e-16 -9.31676272e-15 -0.116868668 
1.35165514e-14 -1.01456526e-14 -0.105089665 
1.23723279e-14 -5.18735089e-15 -0.122687291 
1.99598271e-14 -1.26582573e-14 -0.103999787 
1.99598271e-14 -7.71651729e-15 -0.116868668 
-3.17828558e-15 2.19508972e-14 -0.0860315003 
-3.23559407e-15 9.22066797e-15 -0.120156267 
-2.28054765e-14 4.15780882e-14 -0.105089665 
-1.6319703e-14 1.34730694e-14 -0.122687291 
2.07767425e-14 -3.45512724e-14 -0.0860315003 
2.07767425e-14 -3.56729899e-14 -0.120156267 
1.866018e-14 -3.24347099e-14 -0.105089665 
1.92933698e-14 -3.51785324e-14 -0.122687291 
-2.17053054e-14 1.77699263e-14 -0.084532009 
1.42491576e-14 4.52345405e-15 -0.0860315003 
-2.16816857e-14 -8.59461644e-15 -0.103999787 
5.87207889e-14 -3.99481773e-14 -0.105089665 
-3.49520849e-14 2.4879579e-14 -0.084532009 
-1.81086708e-14 4.33414086e-15 -0.0860315003 
-3.49520849e-14 8.75506342e-15 -0.103999787 
-1.4588758e-14 8.14228112e-16 -0.105089665 
1.13251495e-14 -3.74387222e-15 -0.0996731119 
3.64150794e-16 5.39029338e-15 -0.103999787 
1.03260268e-14 4.47671935e-15 -0.1093498 
3.64150794e-16 1.44385953e-14 -0.116868668 
-1.98841769e-14 6.12162987e-14 -0.0996731119 
1.99598271e-14 2.8012962e-14 -0.103999787 
-1.57757664e-14 2.74130797e-14 -0.1093498 
1.99598271e-14 -8.32251385e-15 -0.116868668 
-1.07925427e-14 1.81412458e-14 -0.0844451642 
-2.17053054e-14 1.24845247e-14 -0.084532009 
-1.47555958e-14 1.79900822e-14 -0.0996731119 
-2.16816857e-14 2.37618238e-14 -0.103999787 
7.07158338e-15 2.09860047e-16 -0.0844451642 
-3.49520849e-14 2.75762353e-14 -0.084532009 
5.33235495e-14 2.09860047e-16 -0.0996731119 
-3.49520849e-14 7.37728887e-14 -0.103999787 
-6.80989352e-15 -8.37233889e-15 -0.0866549813 
-1.82558154e-14 1.81412458e-14 -0.0844451642 
1.44745836e-14 -2.9656816e-14 -0.1093498 
8.68362575e-15 1.79900822e-14 -0.0996731119 
-3.20390002e-15 9.28621004e-15 -0.0866549813 
-3.76385352e-15 2.09860047e-16 -0.0844451642 
-1.50072067e-14 2.10895168e-14 -0.1093498 
-1.24695135e-14 2.09860047e-16 -0.0996731119 
-5.76819608e-14 1.05411468e-14 -0.129169507 
-6.06232734e-15 2.08650735e-14 -0.1093498 
-6.03785279e-15 9.75995969e-17 -0.140172056 
4.33364687e-15 1.04690993e-14 -0.116868668 
-6.93181893e-14 1.2057238e-14 -0.129169507 
-1.19029688e-14 2.35402821e-14 -0.1093498 
-1.21805377e-14 6.29707703e-16 -0.140172056 
-5.86466062e-16 1.22237793e-14 -0.116868668 
-1.06249355e-14 8.30913939e-15 -0.133345996 
-2.35505893e-14 8.36835691e-15 -0.0866549813 
-1.07729793e-14 1.99229431e-14 -0.129169507 
-3.10498095e-14 1.5867577e-14 -0.1093498 
8.28399371e-15 1.28600634e-14 -0.133345996 
-6.77775336e-15 1.28600634e-14 -0.0866549813 
8.28399371e-15 2.75776746e-14 -0.129169507 
-1.65321382e-14 2.26144482e-14 -0.1093498 
5.01910513e-16 -1.1081947e-14 -0.151197415 
-1.06249355e-14 -1.10227295e-14 -0.133345996 
8.61633026e-15 -2.83323701e-15 -0.140172056 
-1.07729793e-14 1.15935046e-15 -0.129169507 
-1.25773965e-14 1.6730876e-14 -0.151197415 
8.28399371e-15 1.6730876e-14 -0.133345996 
-2.59288935e-14 3.37937888e-15 -0.140172056 
8.28399371e-15 -3.46319858e-15 -0.129169507 
-1.0966334e-14 -3.43611922e-15 -0.134876132 
-1.06176434e-14 -4.48219105e-15 -0.140172056 
-1.16284981e-14 -5.31921309e-15 -0.122687291 
-1.14981236e-14 -5.36267125e-15 -0.116868668 
-9.91041325e-15 -4.67721992e-14 -0.134876132 
-2.23284211e-14 -9.51817569e-15 -0.140172056 
2.34269392e-15 -1.84413955e-15 -0.122687291 
-1.04051152e-14 2.40513016e-15 -0.116868668 
6.27098307e-15 7.53487149e-15 -0.140969606 
6.36488769e-15 -5.21896986e-15 -0.151197415 
-1.24889768e-14 1.13180895e-15 -0.134876132 
-6.22138852e-15 -1.76709558e-14 -0.140172056 
-4.131419e-14 -2.70400258e-14 -0.140969606 
-4.14080946e-14 -1.20998222e-14 -0.151197415 
-1.89234906e-14 -1.97329671e-14 -0.134876132 
-2.64529278e-14 2.85534459e-15 -0.140172056 
-2.83727919e-15 9.08789635e-15 -0.120156267 
-2.75723904e-15 4.52546412e-15 -0.140969606 
-7.32136122e-15 1.04736222e-14 -0.122687291 
-9.44369131e-15 2.14690411e-15 -0.134876132 
-1.16803181e-14 -2.48539697e-14 -0.120156267 
-1.17742227e-14 -1.71933701e-14 -0.140969606 
-4.57834796e-15 -2.72212931e-14 -0.122687291 
-8.9733589e-16 -1.37242488e-14 -0.134876132 
0 0 -0.105089665 
0 0 -0.122687291 
0 0 -0.103999787 
0 0 -0.116868668 
-1.01933194e-14 -1.30745929e-14 -0.105089665 
-1.20125661e-14 -5.19119043e-15 -0.122687291 
3.64150794e-16 -1.71915592e-14 -0.103999787 
3.64150794e-16 -9.31676272e-15 -0.116868668 
0 0 -0.0860315003 
0 0 -0.120156267 
0 0 -0.105089665 
0 0 -0.122687291 
-3.17828558e-15 2.19508972e-14 -0.0860315003 
-3.23559407e-15 9.22066797e-15 -0.120156267 
-2.28054765e-14 4.15780882e-14 -0.105089665 
-1.6319703e-14 1.34730694e-14 -0.122687291 
0 0 -0.084532009 
0 0 -0.0860315003 
0 0 -0.103999787 
0 0 -0.105089665 
-2.17053054e-14 1.77699263e-14 -0.084532009 
1.42491576e-14 4.52345405e-15 -0.0860315003 
-2.16816857e-14 -8.59461644e-15 -0.103999787 
5.87207889e-14 -3.99481773e-14 -0.105089665 
0 0 -0.0996731119 
0 0 -0.103999787 
0 0 -0.1093498 
0 0 -0.116868668 
1.13251495e-14 -3.74387222e-15 -0.0996731119 
3.64150794e-16 5.39029338e-15 -0.103999787 
1.03260268e-14 4.47671935e-15 -0.1093498 
3.64150794e-16 1.44385953e-14 -0.116868668 
0 0 -0.0844451642 
0 0 -0.084532009 
0 0 -0.0996731119 
0 0 -0.103999787 
-1.07925427e-14 1.81412458e-14 -0.0844451642 
-2.17053054e-14 1.24845247e-14 -0.084532009 
-1.47555958e-14 1.79900822e-14 -0.0996731119 
-2.16816857e-14 2.37618238e-14 -0.103999787 
0 0 -0.0866549813 
0 0 -0.0844451642 
0 0 -0.1093498 
0 0 -0.0996731119 
-6.80989352e-15 -8.37233889e-15 -0.0866549813 
-1.82558154e-14 1.81412458e-14 -0.0844451642 
1.44745836e-14 -2.9656816e-14 -0.1093498 
8.68362575e-15 1.79900822e-14 -0.0996731119 
0 0 -0.129169507 
0 0 -0.1093498 
0 0 -0.140172056 
0 0 -0.116868668 
-5.76819608e-14 1.05411468e-14 -0.129169507 
-6.06232734e-15 2.08650735e-14 -0.1093498 
-6.03785279e-15 9.75995969e-17 -0.140172056 
4.33364687e-15 1.04690993e-14 -0.116868668 
0 0 -0.133345996 
0 0 -0.0866549813 
0 0 -0.129169507 
0 0 -0.1093498 
-1.06249355e-14 8.30913939e-15 -0.133345996 
-2.35505893e-14 8.36835691e-15 -0.0866549813 
-1.07729793e-14 1.99229431e-14 -0.129169507 
-3.10498095e-14 1.5867577e-14 -0.1093498 
0 0 -0.151197415 
0 0 -0.133345996 
0 0 -0.140172056 
0 0 -0.129169507 
5.01910513e-16 -1.1081947e-14 -0.151197415 
-1.06249355e-14 -1.10227295e-14 -0.133345996 
8.61633026e-15 -2.83323701e-15 -0.140172056 
-1.07729793e-14 1.15935046e-15 -0.129169507 
0 0 -0.134876132 
0 0 -0.140172056 
0 0 -0.122687291 
0 0 -0.116868668 
-1.0966334e-14 -3.43611922e-15 -0.134876132 
-1.06176434e-14 -4.48219105e-15 -0.140172056 
-1.16284981e-14 -5.31921309e-15 -0.122687291 
-1.14981236e-14 -5.36267125e-15 -0.116868668 
0 0 -0.140969606 
0 0 -0.151197415 
0 0 -0.134876132 
0 0 -0.140172056 
6.27098307e-15 7.53487149e-15 -0.140969606 
6.36488769e-15 -5.21896986e-15 -0.151197415 
-1.24889768e-14 1.13180895e-15 -0.134876132 
-6.22138852e-15 -1.76709558e-14 -0.140172056 
0 0 -0.120156267 
0 0 -0.140969606 
0 0 -0.122687291 
0 0 -0.134876132 
-2.83727919e-15 9.08789635e-15 -0.120156267 
-2.75723904e-15 4.52546412e-15 -0.140969606 
-7.32136122e-15 1.04736222e-14 -0.122687291 
-9.44369131e-15 2.14690411e-15 -0.134876132 
5.46784325e-15 2.14236742e-14 -0.142172889 
1.40153358e-15 3.90443494e-14 -0.133068583 
2.14930442e-14 1.87528074e-14 -0.128901009 
2.14930442e-14 3.23471792e-14 -0.116840131 
0 0 -0.142172889 
0 0 -0.133068583 
0 0 -0.128901009 
0 0 -0.116840131 
1.2512796e-14 4.48549271e-14 -0.151197415 
1.24120782e-14 3.39863018e-14 -0.140969606 
-3.67501843e-15 6.10427415e-14 -0.142172889 
1.77804727e-15 3.74127901e-14 -0.133068583 
0 0 -0.151197415 
0 0 -0.140969606 
0 0 -0.142172889 
0 0 -0.133068583 
3.9109248e-14 1.6730876e-14 -0.133345996 
4.06368471e-14 1.6730876e-14 -0.151197415 
3.9109248e-14 1.58167734e-14 -0.128901009 
4.203929e-14 1.53284331e-14 -0.142172889 
0 0 -0.133345996 
0 0 -0.151197415 
0 0 -0.128901009 
0 0 -0.142172889 
-4.61301839e-15 -8.84677643e-15 -0.105019967 
2.14930442e-14 -4.49576599e-15 -0.128901009 
-1.83289163e-14 -4.40195639e-14 -0.104049328 
2.14930442e-14 -4.40195639e-14 -0.116840131 
0 0 -0.105019967 
0 0 -0.128901009 
0 0 -0.104049328 
0 0 -0.116840131 
1.66273894e-14 1.28600634e-14 -0.0866549813 
3.9109248e-14 1.28600634e-14 -0.133345996 
-5.17273678e-15 -8.94006283e-15 -0.105019967 
3.9109248e-14 -1.55973202e-15 -0.128901009 
0 0 -0.0866549813 
0 0 -0.133345996 
0 0 -0.105019967 
0 0 -0.128901009 
-6.64423943e-15 -8.81477042e-15 -0.0845129183 
-1.41671225e-15 -5.18403829e-15 -0.0866549813 
-4.6005374e-15 -8.81477042e-15 -0.104049328 
-4.31486084e-15 -8.08218688e-15 -0.105019967 
0 0 -0.0845129183 
0 0 -0.0866549813 
0 0 -0.104049328 
0 0 -0.105019967 
5.52435006e-15 3.27803267e-15 -0.099695059 
-3.38903138e-14 -4.40195639e-14 -0.104049328 
-3.31907445e-14 -1.4273624e-15 -0.109505562 
-7.5782946e-14 -4.40195639e-14 -0.116840131 
0 0 -0.099695059 
0 0 -0.104049328 
0 0 -0.109505562 
0 0 -0.116840131 
-3.66146471e-14 -1.43298251e-14 -0.0845031284 
-1.21217146e-14 -8.81477042e-15 -0.0845129183 
-3.64864902e-14 -4.71349757e-14 -0.099695059 
-4.55298586e-15 -8.81477042e-15 -0.104049328 
0 0 -0.0845031284 
0 0 -0.0845129183 
0 0 -0.099695059 
0 0 -0.104049328 
-1.33898955e-14 -4.81057279e-15 -0.0860315003 
-3.66146471e-14 -2.64425829e-14 -0.0845031284 
-6.79906605e-15 1.78025662e-15 -0.109505562 
-3.64864902e-14 -1.82792415e-15 -0.099695059 
0 0 -0.0860315003 
0 0 -0.0845031284 
0 0 -0.109505562 
0 0 -0.099695059 
5.47651633e-15 -7.20330943e-14 -0.122422035 
-2.18417319e-14 9.92165022e-15 -0.109505562 
3.29062954e-14 2.85427622e-14 -0.133068583 
5.81110891e-15 3.7574491e-14 -0.116840131 
0 0 -0.122422035 
0 0 -0.109505562 
0 0 -0.133068583 
0 0 -0.116840131 
1.33170473e-14 5.14592653e-14 -0.120156267 
1.33170473e-14 2.189637e-14 -0.0860315003 
-3.07871385e-14 3.67578701e-14 -0.122422035 
-1.6045717e-14 -7.46639433e-15 -0.109505562 
0 0 -0.120156267 
0 0 -0.0860315003 
0 0 -0.122422035 
0 0 -0.109505562 
1.40701437e-14 3.34336133e-14 -0.140969606 
1.39901036e-14 5.16836174e-14 -0.120156267 
3.25297817e-14 2.7162212e-14 -0.133068583 
4.17401711e-14 6.09336399e-14 -0.122422035 
0 0 -0.140969606 
0 0 -0.120156267 
0 0 -0.133068583 
0 0 -0.122422035 
1.39927172e-14 -3.78103751e-15 -0.142172889 
1.53573664e-14 -9.69451729e-15 -0.133068583 
8.26438957e-15 -2.82631624e-15 -0.128901009 
8.26438957e-15 -7.3301917e-15 -0.116840131 
5.46784325e-15 2.14236742e-14 -0.142172889 
1.40153358e-15 3.90443494e-14 -0.133068583 
2.14930442e-14 1.87528074e-14 -0.128901009 
2.14930442e-14 3.23471792e-14 -0.116840131 
-4.35650986e-15 -1.84049816e-14 -0.151197415 
-4.35650986e-15 1.03584701e-15 -0.140969606 
2.38343097e-14 -4.64279383e-14 -0.142172889 
1.42862968e-14 -5.05321571e-15 -0.133068583 
1.2512796e-14 4.48549271e-14 -0.151197415 
1.24120782e-14 3.39863018e-14 -0.140969606 
-3.67501843e-15 6.10427415e-14 -0.142172889 
1.77804727e-15 3.74127901e-14 -0.133068583 
2.69031082e-15 -1.10227295e-14 -0.133345996 
-1.16795444e-14 -1.1081947e-14 -0.151197415 
2.57582373e-15 -1.87822194e-15 -0.128901009 
-2.53736528e-14 2.78002415e-15 -0.142172889 
3.9109248e-14 1.6730876e-14 -0.133345996 
4.06368471e-14 1.6730876e-14 -0.151197415 
3.9109248e-14 1.58167734e-14 -0.128901009 
4.203929e-14 1.53284331e-14 -0.142172889 
-1.27281323e-15 4.08043424e-15 -0.105019967 
8.26438957e-15 5.76537395e-15 -0.128901009 
-6.35628982e-15 -8.75804833e-15 -0.104049328 
8.26438957e-15 -8.75804833e-15 -0.116840131 
-4.61301839e-15 -8.84677643e-15 -0.105019967 
2.14930442e-14 -4.49576599e-15 -0.128901009 
-1.83289163e-14 -4.40195639e-14 -0.104049328 
2.14930442e-14 -4.40195639e-14 -0.116840131 
-2.83624745e-15 8.36835691e-15 -0.0866549813 
2.69031082e-15 8.30913939e-15 -0.133345996 
-8.15452679e-15 2.93348198e-15 -0.105019967 
2.57582373e-15 4.81727964e-15 -0.128901009 
1.66273894e-14 1.28600634e-14 -0.0866549813 
3.9109248e-14 1.28600634e-14 -0.133345996 
-5.17273678e-15 -8.94006283e-15 -0.105019967 
3.9109248e-14 -1.55973202e-15 -0.128901009 
-3.43391017e-15 2.72133659e-15 -0.0845129183 
-4.26569791e-15 6.93890644e-15 -0.0866549813 
-1.87057256e-15 2.74503962e-15 -0.104049328 
2.39302102e-15 1.34810298e-14 -0.105019967 
-6.64423943e-15 -8.81477042e-15 -0.0845129183 
-1.41671225e-15 -5.18403829e-15 -0.0866549813 
-4.6005374e-15 -8.81477042e-15 -0.104049328 
-4.31486084e-15 -8.08218688e-15 -0.105019967 
-2.10880074e-15 -1.3278132e-14 -0.099695059 
1.65793564e-15 -8.75804833e-15 -0.104049328 
1.49563443e-15 -1.28400524e-14 -0.109505562 
5.57763853e-15 -8.75804833e-15 -0.116840131 
5.52435006e-15 3.27803267e-15 -0.099695059 
-3.38903138e-14 -4.40195639e-14 -0.104049328 
-3.31907445e-14 -1.4273624e-15 -0.109505562 
-7.5782946e-14 -4.40195639e-14 -0.116840131 
1.2795173e-15 -2.28653917e-15 -0.0845031284 
4.57904531e-15 2.72133659e-15 -0.0845129183 
1.40767414e-15 -9.05836213e-15 -0.099695059 
1.12438423e-14 2.74503962e-15 -0.104049328 
-3.66146471e-14 -1.43298251e-14 -0.0845031284 
-1.21217146e-14 -8.81477042e-15 -0.0845129183 
-3.64864902e-14 -4.71349757e-14 -0.099695059 
-4.55298586e-15 -8.81477042e-15 -0.104049328 
-1.51650662e-14 2.49166811e-15 -0.0860315003 
1.2795173e-15 3.67779554e-15 -0.0845031284 
-3.50100654e-14 -1.72769198e-14 -0.109505562 
1.40767414e-15 -1.2850743e-14 -0.099695059 
-1.33898955e-14 -4.81057279e-15 -0.0860315003 
-3.66146471e-14 -2.64425829e-14 -0.0845031284 
-6.79906605e-15 1.78025662e-15 -0.109505562 
-3.64864902e-14 -1.82792415e-15 -0.099695059 
7.38972846e-15 -4.18917244e-14 -0.122422035 
-1.34671304e-15 -1.56823999e-14 -0.109505562 
1.61030001e-14 -9.94306186e-15 -0.133068583 
7.32021876e-15 -7.01546809e-15 -0.116840131 
5.47651633e-15 -7.20330943e-14 -0.122422035 
-2.18417319e-14 9.92165022e-15 -0.109505562 
3.29062954e-14 2.85427622e-14 -0.133068583 
5.81110891e-15 3.7574491e-14 -0.116840131 
-3.88054693e-16 2.69399446e-14 -0.120156267 
-3.30746201e-16 1.73259881e-14 -0.0860315003 
-1.40375505e-14 2.23901126e-14 -0.122422035 
-9.36392116e-15 8.36922447e-15 -0.109505562 
1.33170473e-14 5.14592653e-14 -0.120156267 
1.33170473e-14 2.189637e-14 -0.0860315003 
-3.07871385e-14 3.67578701e-14 -0.122422035 
-1.6045717e-14 -7.46639433e-15 -0.109505562 
-6.32717088e-15 1.69273401e-15 -0.140969606 
-6.23326625e-15 2.49915407e-14 -0.120156267 
1.71740696e-14 -6.01580667e-15 -0.133068583 
2.88170075e-14 3.66749653e-14 -0.122422035 
1.40701437e-14 3.34336133e-14 -0.140969606 
1.39901036e-14 5.16836174e-14 -0.120156267 
3.25297817e-14 2.7162212e-14 -0.133068583 
4.17401711e-14 6.09336399e-14 -0.122422035 
0 0 -0.142172889 
0 0 -0.133068583 
0 0 -0.128901009 
0 0 -0.116840131 
1.39927172e-14 -3.78103751e-15 -0.142172889 
1.53573664e-14 -9.69451729e-15 -0.133068583 
8.26438957e-15 -2.82631624e-15 -0.128901009 
8.26438957e-15 -7.3301917e-15 -0.116840131 
0 0 -0.151197415 
0 0 -0.140969606 
0 0 -0.142172889 
0 0 -0.133068583 
-4.35650986e-15 -1.84049816e-14 -0.151197415 
-4.35650986e-15 1.03584701e-15 -0.140969606 
2.38343097e-14 -4.64279383e-14 -0.142172889 
1.42862968e-14 -5.05321571e-15 -0.133068583 
0 0 -0.133345996 
0 0 -0.151197415 
0 0 -0.128901009 
0 0 -0.142172889 
2.69031082e-15 -1.10227295e-14 -0.133345996 
-1.16795444e-14 -1.1081947e-14 -0.151197415 
2.57582373e-15 -1.87822194e-15 -0.128901009 
-2.53736528e-14 2.78002415e-15 -0.142172889 
0 0 -0.105019967 
0 0 -0.128901009 
0 0 -0.104049328 
0 0 -0.116840131 
-1.27281323e-15 4.08043424e-15 -0.105019967 
8.26438957e-15 5.76537395e-15 -0.128901009 
-6.35628982e-15 -8.75804833e-15 -0.104049328 
8.26438957e-15 -8.75804833e-15 -0.116840131 
0 0 -0.0866549813 
0 0 -0.133345996 
0 0 -0.105019967 
0 0 -0.128901009 
-2.83624745e-15 8.36835691e-15 -0.0866549813 
2.69031082e-15 8.30913939e-15 -0.133345996 
-8.15452679e-15 2.93348198e-15 -0.105019967 
2.57582373e-15 4.81727964e-15 -0.128901009 
0 0 -0.0845129183 
0 0 -0.0866549813 
0 0 -0.104049328 
0 0 -0.105019967 
-3.43391017e-15 2.72133659e-15 -0.0845129183 
-4.26569791e-15 6.93890644e-15 -0.0866549813 
-1.87057256e-15 2.74503962e-15 -0.104049328 
2.39302102e-15 1.34810298e-14 -0.105019967 
0 0 -0.099695059 
0 0 -0.104049328 