<VTKFile type="UnstructuredGrid" version="2.2" byte_order="LittleEndian">
<UnstructuredGrid>
<Piece NumberOfPoints="200" NumberOfCells="50">
<Points>
<DataArray type="Float64" NumberOfComponents="3" format="ascii">
0.5 0 0
0.6 0 0
0.5 0.1 0
0.6 0.1 0
0.6 0 0
0.7 0 0
0.6 0.1 0
0.7 0.1 0
0.7 0 0
0.8 0 0
0.7 0.1 0
0.8 0.1 0
0.8 0 0
0.9 0 0
0.8 0.1 0
0.9 0.1 0
0.9 0 0
1 0 0
0.9 0.1 0
1 0.1 0
0.5 0.1 0
0.6 0.1 0
0.5 0.2 0
0.6 0.2 0
0.6 0.1 0
0.7 0.1 0
0.6 0.2 0
0.7 0.2 0
0.7 0.1 0
0.8 0.1 0
0.7 0.2 0
0.8 0.2 0
0.8 0.1 0
0.9 0.1 0
0.8 0.2 0
0.9 0.2 0
0.9 0.1 0
1 0.1 0
0.9 0.2 0
1 0.2 0
0.5 0.2 0
0.6 0.2 0
0.5 0.3 0
0.6 0.3 0
0.6 0.2 0
0.7 0.2 0
0.6 0.3 0
0.7 0.3 0
0.7 0.2 0
0.8 0.2 0
0.7 0.3 0
0.8 0.3 0
0.8 0.2 0
0.9 0.2 0
0.8 0.3 0
0.9 0.3 0
0.9 0.2 0
1 0.2 0
0.9 0.3 0
1 0.3 0
0.5 0.3 0
0.6 0.3 0
0.5 0.4 0
0.6 0.4 0
0.6 0.3 0
0.7 0.3 0
0.6 0.4 0
0.7 0.4 0
0.7 0.3 0
0.8 0.3 0
0.7 0.4 0
0.8 0.4 0
0.8 0.3 0
0.9 0.3 0
0.8 0.4 0
0.9 0.4 0
0.9 0.3 0
1 0.3 0
0.9 0.4 0
1 0.4 0
0.5 0.4 0
0.6 0.4 0
0.5 0.5 0
0.6 0.5 0
0.6 0.4 0
0.7 0.4 0
0.6 0.5 0
0.7 0.5 0
0.7 0.4 0
0.8 0.4 0
0.7 0.5 0
0.8 0.5 0
0.8 0.4 0
0.9 0.4 0
0.8 0.5 0
0.9 0.5 0
0.9 0.4 0
1 0.4 0
0.9 0.5 0
1 0.5 0
0.5 0.5 0
0.6 0.5 0
0.5 0.6 0
0.6 0.6 0
0.6 0.5 0
0.7 0.5 0
0.6 0.6 0
0.7 0.6 0
0.7 0.5 0
0.8 0.5 0
0.7 0.6 0
0.8 0.6 0
0.8 0.5 0
0.9 0.5 0
0.8 0.6 0
0.9 0.6 0
0.9 0.5 0
1 0.5 0
0.9 0.6 0
1 0.6 0
0.5 0.6 0
0.6 0.6 0
0.5 0.7 0
0.6 0.7 0
0.6 0.6 0
0.7 0.6 0
0.6 0.7 0
0.7 0.7 0
0.7 0.6 0
0.8 0.6 0
0.7 0.7 0
0.8 0.7 0
0.8 0.6 0
0.9 0.6 0
0.8 0.7 0
0.9 0.7 0
0.9 0.6 0
1 0.6 0
0.9 0.7 0
1 0.7 0
0.5 0.7 0
0.6 0.7 0
0.5 0.8 0
0.6 0.8 0
0.6 0.7 0
0.7 0.7 0
0.6 0.8 0
0.7 0.8 0
0.7 0.7 0
0.8 0.7 0
0.7 0.8 0
0.8 0.8 0
0.8 0.7 0
0.9 0.7 0
0.8 0.8 0
0.9 0.8 0
0.9 0.7 0
1 0.7 0
0.9 0.8 0
1 0.8 0
0.5 0.8 0
0.6 0.8 0
0.5 0.9 0
0.6 0.9 0
0.6 0.8 0
0.7 0.8 0
0.6 0.9 0
0.7 0.9 0
0.7 0.8 0
0.8 0.8 0
0.7 0.9 0
0.8 0.9 0
0.8 0.8 0
0.9 0.8 0
0.8 0.9 0
0.9 0.9 0
0.9 0.8 0
1 0.8 0
0.9 0.9 0
1 0.9 0
0.5 0.9 0
0.6 0.9 0
0.5 1 0
0.6 1 0
0.6 0.9 0
0.7 0.9 0
0.6 1 0
0.7 1 0
0.7 0.9 0
0.8 0.9 0
0.7 1 0
0.8 1 0
0.8 0.9 0
0.9 0.9 0
0.8 1 0
0.9 1 0
0.9 0.9 0
1 0.9 0
0.9 1 0
1 1 0
</DataArray>
</Points>
<Cells>
<DataArray type="Int32" Name="connectivity" format="ascii">
0 1 3 2 
4 5 7 6 
8 9 11 10 
12 13 15 14 
16 17 19 18 
20 21 23 22 
24 25 27 26 
28 29 31 30 
32 33 35 34 
36 37 39 38 
40 41 43 42 
44 45 47 46 
48 49 51 50 
52 53 55 54 
56 57 59 58 
60 61 63 62 
64 65 67 66 
68 69 71 70 
72 73 75 74 
76 77 79 78 
80 81 83 82 
84 85 87 86 
88 89 91 90 
92 93 95 94 
96 97 99 98 
100 101 103 102 
104 105 107 106 
108 109 111 110 
112 113 115 114 
116 117 119 118 
120 121 123 122 
124 125 127 126 
128 129 131 130 
132 133 135 134 
136 137 139 138 
140 141 143 142 
144 145 147 146 
148 149 151 150 
152 153 155 154 
156 157 159 158 
160 161 163 162 
164 165 167 166 
168 169 171 170 
172 173 175 174 
176 177 179 178 
180 181 183 182 
184 185 187 186 
188 189 191 190 
192 193 195 194 
196 197 199 198 
</DataArray>
<DataArray type="Int32" Name="offsets" format="ascii">
4
8
12
16
20
24
28
32
36
40
44
48
52
56
60
64
68
72
76
80
84
88
92
96
100
104
108
112
116
120
124
128
132
136
140
144
148
152
156
160
164
168
172
176
180
184
188
192
196
200
</DataArray>
<DataArray type="UInt8" Name="types" format="ascii">
9
9
9
9
9
9
9
9
9
9
9
9
9
9
9
9
9
9
9
9
9
9
9
9
9
9
9
9
9
9
9
9
9
9
9
9
9
9
9
9
9
9
9
9
9
9
9
9
9
9
</DataArray>
</Cells>
<CellData Scalars="attribute">
<DataArray type="Int32" Name="attribute" format="ascii">
1
1
1
1
1
1
1
1
1
1
1
1
1
1
1
1
1
1
1
1
1
1
1
1
1
1
1
1
1
1
1
1
1
1
1
1
1
1
1
1
1
1
1
1
1
1
1
1
1
1
</DataArray>
</CellData>
<PointData >
<DataArray type="Float64" Name="received_elem" NumberOfComponents="1"  format="ascii" >
-1
-1
-1
-1
-1
-1
-1
-1
-1
-1
-1
-1
-1
-1
-1
-1
-1
-1
-1
-1
-1
-1
-1
-1
-1
-1
-1
-1
-1
-1
-1
-1
-1
-1
-1
-1
-1
-1
-1
-1
-1
-1
-1
-1
-1
-1
-1
-1
-1
-1
-1
-1
-1
-1
-1
-1
-1
-1
-1
-1
-1
-1
-1
-1
-1
-1
-1
-1
-1
-1
-1
-1
-1
-1
-1
-1
-1
-1
-1
-1
-1
-1
-1
-1
-1
-1
-1
-1
-1
-1
-1
-1
-1
-1
-1
-1
-1
-1
-1
-1
-1
-1
-1
-1
-1
-1
-1
-1
-1
-1
-1
-1
-1
-1
-1
-1
-1
-1
-1
-1
-1
-1
-1
-1
-1
-1
-1
-1
-1
-1
-1
-1
-1
-1
-1
-1
-1
-1
-1
-1
-1
-1
-1
-1
-1
-1
-1
-1
-1
-1
-1
-1
-1
-1
-1
-1
-1
-1
-1
-1
-1
-1
-1
-1
-1
-1
-1
-1
-1
-1
-1
-1
-1
-1
-1
-1
-1
-1
-1
-1
-1
-1
-1
-1
-1
-1
-1
-1
-1
-1
-1
-1
-1
-1
-1
-1
-1
-1
-1
-1
</DataArray>
<DataArray type="Float64" Name="received_nodal" NumberOfComponents="1"  format="ascii" >
-1
-1
-1
-1
-1
-1
-1
-1
-1
-1
-1
-1
-1
-1
-1
-1
-1
-1
-1
-1
-1
-1
-1
-1
-1
-1
-1
-1
-1
-1
-1
-1
-1
-1
-1
-1
-1
-1
-1
-1
-1
-1
-1
-1
-1
-1
-1
-1
-1
-1
-1
-1
-1
-1
-1
-1
-1
-1
-1
-1
-1
-1
-1
-1
-1
-1
-1
-1
-1
-1
-1
-1
-1
-1
-1
-1
-1
-1
-1
-1
-1
-1
-1
-1
-1
-1
-1
-1
-1
-1
-1
-1
-1
-1
-1
-1
-1
-1
-1
-1
-1
-1
-1
-1
-1
-1
-1
-1
-1
-1
-1
-1
-1
-1
-1
-1
-1
-1
-1
-1
-1
-1
-1
-1
-1
-1
-1
-1
-1
-1
-1
-1
-1
-1
-1
-1
-1
-1
-1
-1
-1
-1
-1
-1
-1
-1
-1
-1
-1
-1
-1
-1
-1
-1
-1
-1
-1
-1
-1
-1
-1
-1
-1
-1
-1
-1
-1
-1
-1
-1
-1
-1
-1
-1
-1
-1
-1
-1
-1
-1
-1
-1
-1
-1
-1
-1
-1
-1
-1
-1
-1
-1
-1
-1
-1
-1
-1
-1
-1
-1
</DataArray>
<DataArray type="Float64" Name="sent_elem" NumberOfComponents="1"  format="ascii" >
2.605375
2.605375
2.605375
2.605375
2.845375
2.845375
2.845375
2.845375
3.125375
3.125375
3.125375
3.125375
3.445375
3.445375
3.445375
3.445375
3.805375
3.805375
3.805375
3.805375
2.615125
2.615125
2.615125
2.615125
2.855125
2.855125
2.855125
2.855125
3.135125
3.135125
3.135125
3.135125
3.455125
3.455125
3.455125
3.455125
3.815125
3.815125
3.815125
3.815125
2.651875
2.651875
2.651875
2.651875
2.891875
2.891875
2.891875
2.891875
3.171875
3.171875
3.171875
3.171875
3.491875
3.491875
3.491875
3.491875
3.851875
3.851875
3.851875
3.851875
2.733625
2.733625
2.733625
2.733625
2.973625
2.973625
2.973625
2.973625
3.253625
3.253625
3.253625
3.253625
3.573625
3.573625
3.573625
3.573625
3.933625
3.933625
3.933625
3.933625
2.878375
2.878375
2.878375
2.878375
3.118375
3.118375
3.118375
3.118375
3.398375
3.398375
3.398375
3.398375
3.718375
3.718375
3.718375
3.718375
4.078375
4.078375
4.078375
4.078375
3.104125
3.104125
3.104125
3.104125
3.344125
3.344125
3.344125
3.344125
3.624125
3.624125
3.624125
3.624125
3.944125
3.944125
3.944125
3.944125
4.304125
4.304125
4.304125
4.304125
3.428875
3.428875
3.428875
3.428875
3.668875
3.668875
3.668875
3.668875
3.948875
3.948875
3.948875
3.948875
4.268875
4.268875
4.268875
4.268875
4.628875
4.628875
4.628875
4.628875
3.870625
3.870625
3.870625
3.870625
4.110625
4.110625
4.110625
4.110625
4.390625
4.390625
4.390625
4.390625
4.710625
4.710625
4.710625
4.710625
5.070625
5.070625
5.070625
5.070625
4.447375
4.447375
4.447375
4.447375
4.687375
4.687375
4.687375
4.687375
4.967375
4.967375
4.967375
4.967375
5.287375
5.287375
5.287375
5.287375
5.647375
5.647375
5.647375
5.647375
5.177125
5.177125
5.177125
5.177125
5.417125
5.417125
5.417125
5.417125
5.697125
5.697125
5.697125
5.697125
6.017125
6.017125
6.017125
6.017125
6.377125
6.377125
6.377125
6.377125
</DataArray>
<DataArray type="Float64" Name="sent_nodal" NumberOfComponents="1"  format="ascii" >
1.5
1.72
1.503
1.723
1.72
1.98
1.723
1.983
1.98
2.28
1.983
2.283
2.28
2.62
2.283
2.623
2.62
3
2.623
3.003
1.503
1.723
1.524
1.744
1.723
1.983
1.744
2.004
1.983
2.283
2.004
2.304
2.283
2.623
2.304
2.644
2.623
3.003
2.644
3.024
1.524
1.744
1.581
1.801
1.744
2.004
1.801
2.061
2.004
2.304
2.061
2.361
2.304
2.644
2.361
2.701
2.644
3.024
2.701
3.081
1.581
1.801
1.692
1.912
1.801
2.061
1.912
2.172
2.061
2.361
2.172
2.472
2.361
2.701
2.472
2.812
2.701
3.081
2.812
3.192
1.692
1.912
1.875
2.095
1.912
2.172
2.095
2.355
2.172
2.472
2.355
2.655
2.472
2.812
2.655
2.995
2.812
3.192
2.995
3.375
1.875
2.095
2.148
2.368
2.095
2.355
2.368
2.628
2.355
2.655
2.628
2.928
2.655
2.995
2.928
3.268
2.995
3.375
3.268
3.648
2.148
2.368
2.529
2.749
2.368
2.628
2.749
3.009
2.628
2.928
3.009
3.309
2.928
3.268
3.309
3.649
3.268
3.648
3.649
4.029
2.529
2.749
3.036
3.256
2.749
3.009
3.256
3.516
3.009
3.309
3.516
3.816
3.309
3.649
3.816
4.156
3.649
4.029
4.156
4.536
3.036
3.256
3.687
3.907
3.256
3.516
3.907
4.167
3.516
3.816
4.167
4.467
3.816
4.156
4.467
4.807
4.156
4.536
4.807
5.187
3.687
3.907
4.5
4.72
3.907
4.167
4.72
4.98
4.167
4.467
4.98
5.28
4.467
4.807
5.28
5.62
4.807
5.187
5.62
6
</DataArray>
</PointData>
</Piece>
</UnstructuredGrid>
</VTKFile>
