<VTKFile type="UnstructuredGrid" version="2.2" byte_order="LittleEndian">
<UnstructuredGrid>
<Piece NumberOfPoints="100" NumberOfCells="25">
<Points>
<DataArray type="Float64" NumberOfComponents="3" format="ascii">
0.5 0 0
0.6 0 0
0.5 0.1 0
0.6 0.1 0
0.6 0 0
0.7 0 0
0.6 0.1 0
0.7 0.1 0
0.7 0 0
0.8 0 0
0.7 0.1 0
0.8 0.1 0
0.8 0 0
0.9 0 0
0.8 0.1 0
0.9 0.1 0
0.9 0 0
1 0 0
0.9 0.1 0
1 0.1 0
0.5 0.1 0
0.6 0.1 0
0.5 0.2 0
0.6 0.2 0
0.6 0.1 0
0.7 0.1 0
0.6 0.2 0
0.7 0.2 0
0.7 0.1 0
0.8 0.1 0
0.7 0.2 0
0.8 0.2 0
0.8 0.1 0
0.9 0.1 0
0.8 0.2 0
0.9 0.2 0
0.9 0.1 0
1 0.1 0
0.9 0.2 0
1 0.2 0
0.5 0.2 0
0.6 0.2 0
0.5 0.3 0
0.6 0.3 0
0.6 0.2 0
0.7 0.2 0
0.6 0.3 0
0.7 0.3 0
0.7 0.2 0
0.8 0.2 0
0.7 0.3 0
0.8 0.3 0
0.8 0.2 0
0.9 0.2 0
0.8 0.3 0
0.9 0.3 0
0.9 0.2 0
1 0.2 0
0.9 0.3 0
1 0.3 0
0.5 0.3 0
0.6 0.3 0
0.5 0.4 0
0.6 0.4 0
0.6 0.3 0
0.7 0.3 0
0.6 0.4 0
0.7 0.4 0
0.7 0.3 0
0.8 0.3 0
0.7 0.4 0
0.8 0.4 0
0.8 0.3 0
0.9 0.3 0
0.8 0.4 0
0.9 0.4 0
0.9 0.3 0
1 0.3 0
0.9 0.4 0
1 0.4 0
0.5 0.4 0
0.6 0.4 0
0.5 0.5 0
0.6 0.5 0
0.6 0.4 0
0.7 0.4 0
0.6 0.5 0
0.7 0.5 0
0.7 0.4 0
0.8 0.4 0
0.7 0.5 0
0.8 0.5 0
0.8 0.4 0
0.9 0.4 0
0.8 0.5 0
0.9 0.5 0
0.9 0.4 0
1 0.4 0
0.9 0.5 0
1 0.5 0
</DataArray>
</Points>
<Cells>
<DataArray type="Int32" Name="connectivity" format="ascii">
0 1 3 2 
4 5 7 6 
8 9 11 10 
12 13 15 14 
16 17 19 18 
20 21 23 22 
24 25 27 26 
28 29 31 30 
32 33 35 34 
36 37 39 38 
40 41 43 42 
44 45 47 46 
48 49 51 50 
52 53 55 54 
56 57 59 58 
60 61 63 62 
64 65 67 66 
68 69 71 70 
72 73 75 74 
76 77 79 78 
80 81 83 82 
84 85 87 86 
88 89 91 90 
92 93 95 94 
96 97 99 98 
</DataArray>
<DataArray type="Int32" Name="offsets" format="ascii">
4
8
12
16
20
24
28
32
36
40
44
48
52
56
60
64
68
72
76
80
84
88
92
96
100
</DataArray>
<DataArray type="UInt8" Name="types" format="ascii">
9
9
9
9
9
9
9
9
9
9
9
9
9
9
9
9
9
9
9
9
9
9
9
9
9
</DataArray>
</Cells>
<CellData Scalars="attribute">
<DataArray type="Int32" Name="attribute" format="ascii">
1
1
1
1
1
1
1
1
1
1
1
1
1
1
1
1
1
1
1
1
1
1
1
1
1
</DataArray>
</CellData>
<PointData >
<DataArray type="Float64" Name="div_heat_flux" NumberOfComponents="1"  format="ascii" >
-1.72047442
-1.72047442
-1.72047442
-1.72047442
-1.4833665
-1.4833665
-1.4833665
-1.4833665
-1.13691306
-1.13691306
-1.13691306
-1.13691306
-0.712908015
-0.712908015
-0.712908015
-0.712908015
-0.242740078
-0.242740078
-0.242740078
-0.242740078
-1.72047442
-1.72047442
-1.72047442
-1.72047442
-1.4833665
-1.4833665
-1.4833665
-1.4833665
-1.13691306
-1.13691306
-1.13691306
-1.13691306
-0.712908015
-0.712908015
-0.712908015
-0.712908015
-0.242740078
-0.242740078
-0.242740078
-0.242740078
-1.72047442
-1.72047442
-1.72047442
-1.72047442
-1.4833665
-1.4833665
-1.4833665
-1.4833665
-1.13691306
-1.13691306
-1.13691306
-1.13691306
-0.712908015
-0.712908015
-0.712908015
-0.712908015
-0.242740078
-0.242740078
-0.242740078
-0.242740078
-1.72047442
-1.72047442
-1.72047442
-1.72047442
-1.4833665
-1.4833665
-1.4833665
-1.4833665
-1.13691306
-1.13691306
-1.13691306
-1.13691306
-0.712908015
-0.712908015
-0.712908015
-0.712908015
-0.242740078
-0.242740078
-0.242740078
-0.242740078
-1.72047442
-1.72047442
-1.72047442
-1.72047442
-1.4833665
-1.4833665
-1.4833665
-1.4833665
-1.13691306
-1.13691306
-1.13691306
-1.13691306
-0.712908015
-0.712908015
-0.712908015
-0.712908015
-0.242740078
-0.242740078
-0.242740078
-0.242740078
</DataArray>
<DataArray type="Float64" Name="dtemperature_dt" NumberOfComponents="1"  format="ascii" >
1.72047442
1.72047442
1.72047442
1.72047442
1.4833665
1.4833665
1.4833665
1.4833665
1.13691306
1.13691306
1.13691306
1.13691306
0.712908015
0.712908015
0.712908015
0.712908015
0.242740078
0.242740078
0.242740078
0.242740078
1.72047442
1.72047442
1.72047442
1.72047442
1.4833665
1.4833665
1.4833665
1.4833665
1.13691306
1.13691306
1.13691306
1.13691306
0.712908015
0.712908015
0.712908015
0.712908015
0.242740078
0.242740078
0.242740078
0.242740078
1.72047442
1.72047442
1.72047442
1.72047442
1.4833665
1.4833665
1.4833665
1.4833665
1.13691306
1.13691306
1.13691306
1.13691306
0.712908015
0.712908015
0.712908015
0.712908015
0.242740078
0.242740078
0.242740078
0.242740078
1.72047442
1.72047442
1.72047442
1.72047442
1.4833665
1.4833665
1.4833665
1.4833665
1.13691306
1.13691306
1.13691306
1.13691306
0.712908015
0.712908015
0.712908015
0.712908015
0.242740078
0.242740078
0.242740078
0.242740078
1.72047442
1.72047442
1.72047442
1.72047442
1.4833665
1.4833665
1.4833665
1.4833665
1.13691306
1.13691306
1.13691306
1.13691306
0.712908015
0.712908015
0.712908015
0.712908015
0.242740078
0.242740078
0.242740078
0.242740078
</DataArray>
<DataArray type="Float64" Name="heat_flux" NumberOfComponents="2" ComponentName0="0" ComponentName1="1" format="ascii" >
5.97257054 0 
5.80052309 0 
5.97257054 -1.00891331e-15 
5.80052309 5.72935018e-16 
5.80052309 0 
5.65218645 0 
5.80052309 6.5401306e-16 
5.65218645 -2.80196641e-16 
5.65218645 0 
5.53849514 0 
5.65218645 3.61150063e-16 
5.53849514 8.20098047e-16 
5.53849514 0 
5.46720434 0 
5.53849514 -3.86977495e-16 
5.46720434 -1.19389138e-15 
5.46720434 0 
5.44293033 0 
5.46720434 -1.97379391e-16 
5.44293033 1.03337603e-15 
5.97257054 -1.00891331e-15 
5.80052309 5.72935018e-16 
5.97257054 -1.36345297e-15 
5.80052309 3.55431537e-16 
5.80052309 6.5401306e-16 
5.65218645 -2.80196641e-16 
5.80052309 9.14394406e-16 
5.65218645 -3.26000733e-16 
5.65218645 3.61150063e-16 
5.53849514 8.20098047e-16 
5.65218645 2.01563615e-17 
5.53849514 1.0634862e-15 
5.53849514 -3.86977495e-16 
5.46720434 -1.19389138e-15 
5.53849514 1.28225783e-16 
5.46720434 -7.41050043e-16 
5.46720434 -1.97379391e-16 
5.44293033 1.03337603e-15 
5.46720434 1.44977779e-16 
5.44293033 1.53032605e-15 
5.97257054 -1.36345297e-15 
5.80052309 3.55431537e-16 
5.97257054 -1.5553189e-15 
5.80052309 5.05602615e-16 
5.80052309 9.14394406e-16 
5.65218645 -3.26000733e-16 
5.80052309 1.13731622e-15 
5.65218645 1.04663624e-15 
5.65218645 2.01563615e-17 
5.53849514 1.0634862e-15 
5.65218645 3.06175102e-16 
5.53849514 1.51316168e-15 
5.53849514 1.28225783e-16 
5.46720434 -7.41050043e-16 
5.53849514 2.24120132e-16 
5.46720434 -5.84109382e-16 
5.46720434 1.44977779e-16 
5.44293033 1.53032605e-15 
5.46720434 -8.5262941e-17 
5.44293033 1.39137642e-15 
5.97257054 -1.5553189e-15 
5.80052309 5.05602615e-16 
5.97257054 -2.24156857e-15 
5.80052309 1.81418611e-15 
5.80052309 1.13731622e-15 
5.65218645 1.04663624e-15 
5.80052309 1.16087817e-15 
5.65218645 1.68520573e-16 
5.65218645 3.06175102e-16 
5.53849514 1.51316168e-15 
5.65218645 -4.88171368e-17 
5.53849514 8.80962635e-16 
5.53849514 2.24120132e-16 
5.46720434 -5.84109382e-16 
5.53849514 4.48279553e-16 
5.46720434 -7.89493747e-16 
5.46720434 -8.5262941e-17 
5.44293033 1.39137642e-15 
5.46720434 -2.55775043e-16 
5.44293033 1.1999436e-15 
5.97257054 -2.24156857e-15 
5.80052309 1.81418611e-15 
5.97257054 -2.67376827e-15 
5.80052309 7.94643368e-16 
5.80052309 1.16087817e-15 
5.65218645 1.68520573e-16 
5.80052309 1.09114516e-15 
5.65218645 -4.06074303e-16 
5.65218645 -4.88171368e-17 
5.53849514 8.80962635e-16 
5.65218645 -3.33727655e-16 
5.53849514 1.68165357e-15 
5.53849514 4.48279553e-16 
5.46720434 -7.89493747e-16 
5.53849514 6.82752963e-16 
5.46720434 -6.57312137e-16 
5.46720434 -2.55775043e-16 
5.44293033 1.1999436e-15 
5.46720434 6.00818276e-17 
5.44293033 1.53538309e-15 
</DataArray>
<DataArray type="Float64" Name="temperature" NumberOfComponents="1"  format="ascii" >
0.418947705
0.418947705
0.418947705
0.418947705
0.322371115
0.322371115
0.322371115
0.322371115
0.228312364
0.228312364
0.228312364
0.228312364
0.13618078
0.13618078
0.13618078
0.13618078
0.0452566111
0.0452566111
0.0452566111
0.0452566111
0.418947705
0.418947705
0.418947705
0.418947705
0.322371115
0.322371115
0.322371115
0.322371115
0.228312364
0.228312364
0.228312364
0.228312364
0.13618078
0.13618078
0.13618078
0.13618078
0.0452566111
0.0452566111
0.0452566111
0.0452566111
0.418947705
0.418947705
0.418947705
0.418947705
0.322371115
0.322371115
0.322371115
0.322371115
0.228312364
0.228312364
0.228312364
0.228312364
0.13618078
0.13618078
0.13618078
0.13618078
0.0452566111
0.0452566111
0.0452566111
0.0452566111
0.418947705
0.418947705
0.418947705
0.418947705
0.322371115
0.322371115
0.322371115
0.322371115
0.228312364
0.228312364
0.228312364
0.228312364
0.13618078
0.13618078
0.13618078
0.13618078
0.0452566111
0.0452566111
0.0452566111
0.0452566111
0.418947705
0.418947705
0.418947705
0.418947705
0.322371115
0.322371115
0.322371115
0.322371115
0.228312364
0.228312364
0.228312364
0.228312364
0.13618078
0.13618078
0.13618078
0.13618078
0.0452566111
0.0452566111
0.0452566111
0.0452566111
</DataArray>
<DataArray type="Float64" Name="time_integrated_heat_flux" NumberOfComponents="2" ComponentName0="0" ComponentName1="1" format="ascii" >
0.497634195 0 
0.455739424 0 
0.497634195 -1.28909782e-16 
0.455739424 6.36921376e-17 
0.455739424 0 
0.423502313 0 
0.455739424 4.72321602e-17 
0.423502313 -2.41870309e-17 
0.423502313 0 
0.400671076 0 
0.423502313 -7.24211889e-18 
0.400671076 5.00261026e-17 
0.400671076 0 
0.387052998 0 
0.400671076 -1.17628523e-17 
0.387052998 -7.51414909e-17 
0.387052998 0 
0.382527337 0 
0.387052998 -1.37462268e-17 
0.382527337 7.56366266e-17 
0.497634195 -1.28909782e-16 
0.455739424 6.36921376e-17 
0.497634195 -1.15940811e-16 
0.455739424 -2.62860385e-18 
0.455739424 4.72321602e-17 
0.423502313 -2.41870309e-17 
0.455739424 5.17043857e-17 
0.423502313 -2.79109428e-17 
0.423502313 -7.24211889e-18 
0.400671076 5.00261026e-17 
0.423502313 -2.21222415e-17 
0.400671076 6.66836179e-17 
0.400671076 -1.17628523e-17 
0.387052998 -7.51414909e-17 
0.400671076 1.77695587e-17 
0.387052998 -4.22485301e-17 
0.387052998 -1.37462268e-17 
0.382527337 7.56366266e-17 
0.387052998 8.10244807e-18 
0.382527337 1.0654719e-16 
0.497634195 -1.15940811e-16 
0.455739424 -2.62860385e-18 
0.497634195 -1.37970623e-16 
0.455739424 -7.93098079e-18 
0.455739424 5.17043857e-17 
0.423502313 -2.79109428e-17 
0.455739424 4.10601513e-17 
0.423502313 8.66904695e-17 
0.423502313 -2.21222415e-17 
0.400671076 6.66836179e-17 
0.423502313 8.07065937e-18 
0.400671076 1.1256544e-16 
0.400671076 1.77695587e-17 
0.387052998 -4.22485301e-17 
0.400671076 -2.23887531e-18 
0.387052998 -7.28448645e-17 
0.387052998 8.10244807e-18 
0.382527337 1.0654719e-16 
0.387052998 -6.54995191e-18 
0.382527337 1.05231778e-16 
0.497634195 -1.37970623e-16 
0.455739424 -7.93098079e-18 
0.497634195 -1.83748594e-16 
0.455739424 1.4399171e-17 
0.455739424 4.10601513e-17 
0.423502313 8.66904695e-17 
0.455739424 4.31853587e-17 
0.423502313 -9.412838e-18 
0.423502313 8.07065937e-18 
0.400671076 1.1256544e-16 
0.423502313 -2.06942363e-17 
0.400671076 7.27777457e-17 
0.400671076 -2.23887531e-18 
0.387052998 -7.28448645e-17 
0.400671076 3.34347518e-17 
0.387052998 -6.33647912e-17 
0.387052998 -6.54995191e-18 
0.382527337 1.05231778e-16 
0.387052998 -1.96953149e-17 
0.382527337 8.2892674e-17 
0.497634195 -1.83748594e-16 
0.455739424 1.4399171e-17 
0.497634195 -1.6703292e-16 
0.455739424 -2.7659921e-18 
0.455739424 4.31853587e-17 
0.423502313 -9.412838e-18 
0.455739424 4.71502378e-17 
0.423502313 -4.4151723e-17 
0.423502313 -2.06942363e-17 
0.400671076 7.27777457e-17 
0.423502313 -2.39955561e-17 
0.400671076 1.33831146e-16 
0.400671076 3.34347518e-17 
0.387052998 -6.33647912e-17 
0.400671076 3.71582484e-17 
0.387052998 -9.00506525e-17 
0.387052998 -1.96953149e-17 
0.382527337 8.2892674e-17 
0.387052998 3.21214099e-19 
0.382527337 1.09939582e-16 
</DataArray>
</PointData>
</Piece>
</UnstructuredGrid>
</VTKFile>
