<VTKFile type="UnstructuredGrid" version="2.2" byte_order="LittleEndian">
<UnstructuredGrid>
<Piece NumberOfPoints="100" NumberOfCells="25">
<Points>
<DataArray type="Float64" NumberOfComponents="3" format="ascii">
0 0 0
0.1 0 0
0 0.1 0
0.1 0.1 0
0.1 0 0
0.2 0 0
0.1 0.1 0
0.2 0.1 0
0.2 0 0
0.3 0 0
0.2 0.1 0
0.3 0.1 0
0.3 0 0
0.4 0 0
0.3 0.1 0
0.4 0.1 0
0.4 0 0
0.5 0 0
0.4 0.1 0
0.5 0.1 0
0 0.1 0
0.1 0.1 0
0 0.2 0
0.1 0.2 0
0.1 0.1 0
0.2 0.1 0
0.1 0.2 0
0.2 0.2 0
0.2 0.1 0
0.3 0.1 0
0.2 0.2 0
0.3 0.2 0
0.3 0.1 0
0.4 0.1 0
0.3 0.2 0
0.4 0.2 0
0.4 0.1 0
0.5 0.1 0
0.4 0.2 0
0.5 0.2 0
0 0.2 0
0.1 0.2 0
0 0.3 0
0.1 0.3 0
0.1 0.2 0
0.2 0.2 0
0.1 0.3 0
0.2 0.3 0
0.2 0.2 0
0.3 0.2 0
0.2 0.3 0
0.3 0.3 0
0.3 0.2 0
0.4 0.2 0
0.3 0.3 0
0.4 0.3 0
0.4 0.2 0
0.5 0.2 0
0.4 0.3 0
0.5 0.3 0
0 0.3 0
0.1 0.3 0
0 0.4 0
0.1 0.4 0
0.1 0.3 0
0.2 0.3 0
0.1 0.4 0
0.2 0.4 0
0.2 0.3 0
0.3 0.3 0
0.2 0.4 0
0.3 0.4 0
0.3 0.3 0
0.4 0.3 0
0.3 0.4 0
0.4 0.4 0
0.4 0.3 0
0.5 0.3 0
0.4 0.4 0
0.5 0.4 0
0 0.4 0
0.1 0.4 0
0 0.5 0
0.1 0.5 0
0.1 0.4 0
0.2 0.4 0
0.1 0.5 0
0.2 0.5 0
0.2 0.4 0
0.3 0.4 0
0.2 0.5 0
0.3 0.5 0
0.3 0.4 0
0.4 0.4 0
0.3 0.5 0
0.4 0.5 0
0.4 0.4 0
0.5 0.4 0
0.4 0.5 0
0.5 0.5 0
</DataArray>
</Points>
<Cells>
<DataArray type="Int32" Name="connectivity" format="ascii">
0 1 3 2 
4 5 7 6 
8 9 11 10 
12 13 15 14 
16 17 19 18 
20 21 23 22 
24 25 27 26 
28 29 31 30 
32 33 35 34 
36 37 39 38 
40 41 43 42 
44 45 47 46 
48 49 51 50 
52 53 55 54 
56 57 59 58 
60 61 63 62 
64 65 67 66 
68 69 71 70 
72 73 75 74 
76 77 79 78 
80 81 83 82 
84 85 87 86 
88 89 91 90 
92 93 95 94 
96 97 99 98 
</DataArray>
<DataArray type="Int32" Name="offsets" format="ascii">
4
8
12
16
20
24
28
32
36
40
44
48
52
56
60
64
68
72
76
80
84
88
92
96
100
</DataArray>
<DataArray type="UInt8" Name="types" format="ascii">
9
9
9
9
9
9
9
9
9
9
9
9
9
9
9
9
9
9
9
9
9
9
9
9
9
</DataArray>
</Cells>
<CellData Scalars="attribute">
<DataArray type="Int32" Name="attribute" format="ascii">
1
1
1
1
1
1
1
1
1
1
1
1
1
1
1
1
1
1
1
1
1
1
1
1
1
</DataArray>
</CellData>
<PointData >
<DataArray type="Float64" Name="div_heat_flux" NumberOfComponents="1"  format="ascii" >
-0.383019926
-0.383019926
-0.383019926
-0.383019926
-1.02145075
-1.02145075
-1.02145075
-1.02145075
-1.4816214
-1.4816214
-1.4816214
-1.4816214
-1.74448177
-1.74448177
-1.74448177
-1.74448177
-1.81698953
-1.81698953
-1.81698953
-1.81698953
-0.383019926
-0.383019926
-0.383019926
-0.383019926
-1.02145075
-1.02145075
-1.02145075
-1.02145075
-1.4816214
-1.4816214
-1.4816214
-1.4816214
-1.74448177
-1.74448177
-1.74448177
-1.74448177
-1.81698953
-1.81698953
-1.81698953
-1.81698953
-0.383019926
-0.383019926
-0.383019926
-0.383019926
-1.02145075
-1.02145075
-1.02145075
-1.02145075
-1.4816214
-1.4816214
-1.4816214
-1.4816214
-1.74448177
-1.74448177
-1.74448177
-1.74448177
-1.81698953
-1.81698953
-1.81698953
-1.81698953
-0.383019926
-0.383019926
-0.383019926
-0.383019926
-1.02145075
-1.02145075
-1.02145075
-1.02145075
-1.4816214
-1.4816214
-1.4816214
-1.4816214
-1.74448177
-1.74448177
-1.74448177
-1.74448177
-1.81698953
-1.81698953
-1.81698953
-1.81698953
-0.383019926
-0.383019926
-0.383019926
-0.383019926
-1.02145075
-1.02145075
-1.02145075
-1.02145075
-1.4816214
-1.4816214
-1.4816214
-1.4816214
-1.74448177
-1.74448177
-1.74448177
-1.74448177
-1.81698953
-1.81698953
-1.81698953
-1.81698953
</DataArray>
<DataArray type="Float64" Name="dtemperature_dt" NumberOfComponents="1"  format="ascii" >
0.383019926
0.383019926
0.383019926
0.383019926
1.02145075
1.02145075
1.02145075
1.02145075
1.4816214
1.4816214
1.4816214
1.4816214
1.74448177
1.74448177
1.74448177
1.74448177
1.81698953
1.81698953
1.81698953
1.81698953
0.383019926
0.383019926
0.383019926
0.383019926
1.02145075
1.02145075
1.02145075
1.02145075
1.4816214
1.4816214
1.4816214
1.4816214
1.74448177
1.74448177
1.74448177
1.74448177
1.81698953
1.81698953
1.81698953
1.81698953
0.383019926
0.383019926
0.383019926
0.383019926
1.02145075
1.02145075
1.02145075
1.02145075
1.4816214
1.4816214
1.4816214
1.4816214
1.74448177
1.74448177
1.74448177
1.74448177
1.81698953
1.81698953
1.81698953
1.81698953
0.383019926
0.383019926
0.383019926
0.383019926
1.02145075
1.02145075
1.02145075
1.02145075
1.4816214
1.4816214
1.4816214
1.4816214
1.74448177
1.74448177
1.74448177
1.74448177
1.81698953
1.81698953
1.81698953
1.81698953
0.383019926
0.383019926
0.383019926
0.383019926
1.02145075
1.02145075
1.02145075
1.02145075
1.4816214
1.4816214
1.4816214
1.4816214
1.74448177
1.74448177
1.74448177
1.74448177
1.81698953
1.81698953
1.81698953
1.81698953
</DataArray>
<DataArray type="Float64" Name="heat_flux" NumberOfComponents="2" ComponentName0="0" ComponentName1="1" format="ascii" >
6.61732687 0 
6.57902488 0 
6.61732687 4.64325414e-18 
6.57902488 1.05730985e-16 
6.57902488 0 
6.47687981 0 
6.57902488 -6.60648275e-16 
6.47687981 -1.47695496e-16 
6.47687981 0 
6.32871767 0 
6.47687981 -6.34679463e-16 
6.32871767 7.63881243e-16 
6.32871767 0 
6.15426949 0 
6.32871767 7.03893559e-16 
6.15426949 -3.17227864e-16 
6.15426949 0 
5.97257054 0 
6.15426949 4.25880954e-16 
5.97257054 1.62968872e-16 
6.61732687 4.64325414e-18 
6.57902488 1.05730985e-16 
6.61732687 2.59043569e-16 
6.57902488 1.87228857e-16 
6.57902488 -6.60648275e-16 
6.47687981 -1.47695496e-16 
6.57902488 1.13958877e-16 
6.47687981 6.93093313e-16 
6.47687981 -6.34679463e-16 
6.32871767 7.63881243e-16 
6.47687981 -9.73827038e-16 
6.32871767 2.5082384e-16 
6.32871767 7.03893559e-16 
6.15426949 -3.17227864e-16 
6.32871767 2.19145352e-16 
6.15426949 -7.45445428e-16 
6.15426949 4.25880954e-16 
5.97257054 1.62968872e-16 
6.15426949 8.35154777e-17 
5.97257054 -1.22434691e-16 
6.61732687 2.59043569e-16 
6.57902488 1.87228857e-16 
6.61732687 3.33328387e-16 
6.57902488 3.83006154e-16 
6.57902488 1.13958877e-16 
6.47687981 6.93093313e-16 
6.57902488 -3.22809069e-16 
6.47687981 1.65648761e-16 
6.47687981 -9.73827038e-16 
6.32871767 2.5082384e-16 
6.47687981 -7.29420693e-16 
6.32871767 1.51438745e-15 
6.32871767 2.19145352e-16 
6.15426949 -7.45445428e-16 
6.32871767 -2.83738663e-18 
6.15426949 -9.07432293e-16 
6.15426949 8.35154777e-17 
5.97257054 -1.22434691e-16 
6.15426949 2.50233847e-16 
5.97257054 -4.51305837e-16 
6.61732687 3.33328387e-16 
6.57902488 3.83006154e-16 
6.61732687 -4.55648336e-16 
6.57902488 -3.4866726e-16 
6.57902488 -3.22809069e-16 
6.47687981 1.65648761e-16 
6.57902488 -5.86351307e-16 
6.47687981 3.62871457e-16 
6.47687981 -7.29420693e-16 
6.32871767 1.51438745e-15 
6.47687981 -6.23070311e-17 
6.32871767 2.10564092e-15 
6.32871767 -2.83738663e-18 
6.15426949 -9.07432293e-16 
6.32871767 4.4054472e-16 
6.15426949 -4.74313693e-16 
6.15426949 2.50233847e-16 
5.97257054 -4.51305837e-16 
6.15426949 -3.06498835e-17 
5.97257054 -2.9536422e-16 
6.61732687 -4.55648336e-16 
6.57902488 -3.4866726e-16 
6.61732687 -5.09794753e-17 
6.57902488 2.99926789e-17 
6.57902488 -5.86351307e-16 
6.47687981 3.62871457e-16 
6.57902488 1.1532194e-16 
6.47687981 1.18747601e-15 
6.47687981 -6.23070311e-17 
6.32871767 2.10564092e-15 
6.47687981 4.6860932e-16 
6.32871767 1.42086839e-15 
6.32871767 4.4054472e-16 
6.15426949 -4.74313693e-16 
6.32871767 3.35332024e-16 
6.15426949 -7.19621989e-17 
6.15426949 -3.06498835e-17 
5.97257054 -2.9536422e-16 
6.15426949 2.92662405e-16 
5.97257054 -2.87208026e-16 
</DataArray>
<DataArray type="Float64" Name="temperature" NumberOfComponents="1"  format="ascii" >
0.944696018
0.944696018
0.944696018
0.944696018
0.83477959
0.83477959
0.83477959
0.83477959
0.726639856
0.726639856
0.726639856
0.726639856
0.621051703
0.621051703
0.621051703
0.621051703
0.518450333
0.518450333
0.518450333
0.518450333
0.944696018
0.944696018
0.944696018
0.944696018
0.83477959
0.83477959
0.83477959
0.83477959
0.726639856
0.726639856
0.726639856
0.726639856
0.621051703
0.621051703
0.621051703
0.621051703
0.518450333
0.518450333
0.518450333
0.518450333
0.944696018
0.944696018
0.944696018
0.944696018
0.83477959
0.83477959
0.83477959
0.83477959
0.726639856
0.726639856
0.726639856
0.726639856
0.621051703
0.621051703
0.621051703
0.621051703
0.518450333
0.518450333
0.518450333
0.518450333
0.944696018
0.944696018
0.944696018
0.944696018
0.83477959
0.83477959
0.83477959
0.83477959
0.726639856
0.726639856
0.726639856
0.726639856
0.621051703
0.621051703
0.621051703
0.621051703
0.518450333
0.518450333
0.518450333
0.518450333
0.944696018
0.944696018
0.944696018
0.944696018
0.83477959
0.83477959
0.83477959
0.83477959
0.726639856
0.726639856
0.726639856
0.726639856
0.621051703
0.621051703
0.621051703
0.621051703
0.518450333
0.518450333
0.518450333
0.518450333
</DataArray>
<DataArray type="Float64" Name="time_integrated_heat_flux" NumberOfComponents="2" ComponentName0="0" ComponentName1="1" format="ascii" >
0.862195945 0 
0.767726343 0 
0.862195945 3.02529268e-17 
0.767726343 7.88366151e-17 
0.767726343 0 
0.684248384 0 
0.767726343 -1.13401251e-16 
0.684248384 -7.23010873e-17 
0.684248384 0 
0.611584398 0 
0.684248384 -6.76603256e-17 
0.611584398 -5.50776859e-17 
0.611584398 0 
0.549479228 0 
0.611584398 5.13735053e-17 
0.549479228 -4.64864263e-17 
0.549479228 0 
0.497634195 0 
0.549479228 7.64066975e-18 
0.497634195 -7.6050182e-18 
0.862195945 3.02529268e-17 
0.767726343 7.88366151e-17 
0.862195945 -6.5751943e-17 
0.767726343 7.6697506e-17 
0.767726343 -1.13401251e-16 
0.684248384 -7.23010873e-17 
0.767726343 -9.31535911e-17 
0.684248384 7.18044613e-17 
0.684248384 -6.76603256e-17 
0.611584398 -5.50776859e-17 
0.684248384 -5.06106642e-17 
0.611584398 6.57569229e-17 
0.611584398 5.13735053e-17 
0.549479228 -4.64864263e-17 
0.611584398 1.75511872e-17 
0.549479228 -1.38463932e-16 
0.549479228 7.64066975e-18 
0.497634195 -7.6050182e-18 
0.549479228 -5.00502153e-17 
0.497634195 -6.87343919e-17 
0.862195945 -6.5751943e-17 
0.767726343 7.6697506e-17 
0.862195945 1.28018888e-16 
0.767726343 8.71125786e-17 
0.767726343 -9.31535911e-17 
0.684248384 7.18044613e-17 
0.767726343 8.65485378e-18 
0.684248384 -5.19071897e-17 
0.684248384 -5.06106642e-17 
0.611584398 6.57569229e-17 
0.684248384 -2.30347212e-17 
0.611584398 3.38723918e-17 
0.611584398 1.75511872e-17 
0.549479228 -1.38463932e-16 
0.611584398 2.9183345e-17 
0.549479228 -1.90151435e-16 
0.549479228 -5.00502153e-17 
0.497634195 -6.87343919e-17 
0.549479228 -1.85039187e-17 
0.497634195 -3.46895468e-17 
0.862195945 1.28018888e-16 
0.767726343 8.71125786e-17 
0.862195945 -7.83350731e-18 
0.767726343 9.21969954e-18 
0.767726343 8.65485378e-18 
0.684248384 -5.19071897e-17 
0.767726343 -8.91804425e-17 
0.684248384 9.39201503e-17 
0.684248384 -2.30347212e-17 
0.611584398 3.38723918e-17 
0.684248384 -8.58787654e-17 
0.611584398 6.4401257e-17 
0.611584398 2.9183345e-17 
0.549479228 -1.90151435e-16 
0.611584398 -9.61738311e-18 
0.549479228 -4.70641189e-17 
0.549479228 -1.85039187e-17 
0.497634195 -3.46895468e-17 
0.549479228 -3.20717254e-17 
0.497634195 -7.70796467e-18 
0.862195945 -7.83350731e-18 
0.767726343 9.21969954e-18 
0.862195945 8.75326894e-17 
0.767726343 7.49288721e-17 
0.767726343 -8.91804425e-17 
0.684248384 9.39201503e-17 
0.767726343 -7.81368794e-17 
0.684248384 1.23364648e-16 
0.684248384 -8.58787654e-17 
0.611584398 6.4401257e-17 
0.684248384 4.47518399e-17 
0.611584398 7.51574893e-17 
0.611584398 -9.61738311e-18 
0.549479228 -4.70641189e-17 
0.611584398 -7.0770197e-17 
0.549479228 6.47726585e-17 
0.549479228 -3.20717254e-17 
0.497634195 -7.70796467e-18 
0.549479228 5.07478536e-17 
0.497634195 -4.95777315e-17 
</DataArray>
</PointData>
</Piece>
</UnstructuredGrid>
</VTKFile>
