<VTKFile type="UnstructuredGrid" version="2.2" byte_order="LittleEndian">
<UnstructuredGrid>
<Piece NumberOfPoints="100" NumberOfCells="25">
<Points>
<DataArray type="Float64" NumberOfComponents="3" format="ascii">
0.5 0.5 0
0.6 0.5 0
0.5 0.6 0
0.6 0.6 0
0.6 0.5 0
0.7 0.5 0
0.6 0.6 0
0.7 0.6 0
0.7 0.5 0
0.8 0.5 0
0.7 0.6 0
0.8 0.6 0
0.8 0.5 0
0.9 0.5 0
0.8 0.6 0
0.9 0.6 0
0.9 0.5 0
1 0.5 0
0.9 0.6 0
1 0.6 0
0.5 0.6 0
0.6 0.6 0
0.5 0.7 0
0.6 0.7 0
0.6 0.6 0
0.7 0.6 0
0.6 0.7 0
0.7 0.7 0
0.7 0.6 0
0.8 0.6 0
0.7 0.7 0
0.8 0.7 0
0.8 0.6 0
0.9 0.6 0
0.8 0.7 0
0.9 0.7 0
0.9 0.6 0
1 0.6 0
0.9 0.7 0
1 0.7 0
0.5 0.7 0
0.6 0.7 0
0.5 0.8 0
0.6 0.8 0
0.6 0.7 0
0.7 0.7 0
0.6 0.8 0
0.7 0.8 0
0.7 0.7 0
0.8 0.7 0
0.7 0.8 0
0.8 0.8 0
0.8 0.7 0
0.9 0.7 0
0.8 0.8 0
0.9 0.8 0
0.9 0.7 0
1 0.7 0
0.9 0.8 0
1 0.8 0
0.5 0.8 0
0.6 0.8 0
0.5 0.9 0
0.6 0.9 0
0.6 0.8 0
0.7 0.8 0
0.6 0.9 0
0.7 0.9 0
0.7 0.8 0
0.8 0.8 0
0.7 0.9 0
0.8 0.9 0
0.8 0.8 0
0.9 0.8 0
0.8 0.9 0
0.9 0.9 0
0.9 0.8 0
1 0.8 0
0.9 0.9 0
1 0.9 0
0.5 0.9 0
0.6 0.9 0
0.5 1 0
0.6 1 0
0.6 0.9 0
0.7 0.9 0
0.6 1 0
0.7 1 0
0.7 0.9 0
0.8 0.9 0
0.7 1 0
0.8 1 0
0.8 0.9 0
0.9 0.9 0
0.8 1 0
0.9 1 0
0.9 0.9 0
1 0.9 0
0.9 1 0
1 1 0
</DataArray>
</Points>
<Cells>
<DataArray type="Int32" Name="connectivity" format="ascii">
0 1 3 2 
4 5 7 6 
8 9 11 10 
12 13 15 14 
16 17 19 18 
20 21 23 22 
24 25 27 26 
28 29 31 30 
32 33 35 34 
36 37 39 38 
40 41 43 42 
44 45 47 46 
48 49 51 50 
52 53 55 54 
56 57 59 58 
60 61 63 62 
64 65 67 66 
68 69 71 70 
72 73 75 74 
76 77 79 78 
80 81 83 82 
84 85 87 86 
88 89 91 90 
92 93 95 94 
96 97 99 98 
</DataArray>
<DataArray type="Int32" Name="offsets" format="ascii">
4
8
12
16
20
24
28
32
36
40
44
48
52
56
60
64
68
72
76
80
84
88
92
96
100
</DataArray>
<DataArray type="UInt8" Name="types" format="ascii">
9
9
9
9
9
9
9
9
9
9
9
9
9
9
9
9
9
9
9
9
9
9
9
9
9
</DataArray>
</Cells>
<CellData Scalars="attribute">
<DataArray type="Int32" Name="attribute" format="ascii">
1
1
1
1
1
1
1
1
1
1
1
1
1
1
1
1
1
1
1
1
1
1
1
1
1
</DataArray>
</CellData>
<PointData >
<DataArray type="Float64" Name="div_heat_flux" NumberOfComponents="1"  format="ascii" >
-1.72047442
-1.72047442
-1.72047442
-1.72047442
-1.4833665
-1.4833665
-1.4833665
-1.4833665
-1.13691306
-1.13691306
-1.13691306
-1.13691306
-0.712908015
-0.712908015
-0.712908015
-0.712908015
-0.242740078
-0.242740078
-0.242740078
-0.242740078
-1.72047442
-1.72047442
-1.72047442
-1.72047442
-1.4833665
-1.4833665
-1.4833665
-1.4833665
-1.13691306
-1.13691306
-1.13691306
-1.13691306
-0.712908015
-0.712908015
-0.712908015
-0.712908015
-0.242740078
-0.242740078
-0.242740078
-0.242740078
-1.72047442
-1.72047442
-1.72047442
-1.72047442
-1.4833665
-1.4833665
-1.4833665
-1.4833665
-1.13691306
-1.13691306
-1.13691306
-1.13691306
-0.712908015
-0.712908015
-0.712908015
-0.712908015
-0.242740078
-0.242740078
-0.242740078
-0.242740078
-1.72047442
-1.72047442
-1.72047442
-1.72047442
-1.4833665
-1.4833665
-1.4833665
-1.4833665
-1.13691306
-1.13691306
-1.13691306
-1.13691306
-0.712908015
-0.712908015
-0.712908015
-0.712908015
-0.242740078
-0.242740078
-0.242740078
-0.242740078
-1.72047442
-1.72047442
-1.72047442
-1.72047442
-1.4833665
-1.4833665
-1.4833665
-1.4833665
-1.13691306
-1.13691306
-1.13691306
-1.13691306
-0.712908015
-0.712908015
-0.712908015
-0.712908015
-0.242740078
-0.242740078
-0.242740078
-0.242740078
</DataArray>
<DataArray type="Float64" Name="dtemperature_dt" NumberOfComponents="1"  format="ascii" >
1.72047442
1.72047442
1.72047442
1.72047442
1.4833665
1.4833665
1.4833665
1.4833665
1.13691306
1.13691306
1.13691306
1.13691306
0.712908015
0.712908015
0.712908015
0.712908015
0.242740078
0.242740078
0.242740078
0.242740078
1.72047442
1.72047442
1.72047442
1.72047442
1.4833665
1.4833665
1.4833665
1.4833665
1.13691306
1.13691306
1.13691306
1.13691306
0.712908015
0.712908015
0.712908015
0.712908015
0.242740078
0.242740078
0.242740078
0.242740078
1.72047442
1.72047442
1.72047442
1.72047442
1.4833665
1.4833665
1.4833665
1.4833665
1.13691306
1.13691306
1.13691306
1.13691306
0.712908015
0.712908015
0.712908015
0.712908015
0.242740078
0.242740078
0.242740078
0.242740078
1.72047442
1.72047442
1.72047442
1.72047442
1.4833665
1.4833665
1.4833665
1.4833665
1.13691306
1.13691306
1.13691306
1.13691306
0.712908015
0.712908015
0.712908015
0.712908015
0.242740078
0.242740078
0.242740078
0.242740078
1.72047442
1.72047442
1.72047442
1.72047442
1.4833665
1.4833665
1.4833665
1.4833665
1.13691306
1.13691306
1.13691306
1.13691306
0.712908015
0.712908015
0.712908015
0.712908015
0.242740078
0.242740078
0.242740078
0.242740078
</DataArray>
<DataArray type="Float64" Name="heat_flux" NumberOfComponents="2" ComponentName0="0" ComponentName1="1" format="ascii" >
5.97257054 -2.67376827e-15 
5.80052309 7.94643368e-16 
5.97257054 -2.02714122e-15 
5.80052309 5.32501475e-16 
5.80052309 1.09114516e-15 
5.65218645 -4.06074303e-16 
5.80052309 5.69398936e-16 
5.65218645 -6.52262891e-16 
5.65218645 -3.33727655e-16 
5.53849514 1.68165357e-15 
5.65218645 -4.41702299e-17 
5.53849514 1.30172041e-15 
5.53849514 6.82752963e-16 
5.46720434 -6.57312137e-16 
5.53849514 7.60707572e-16 
5.46720434 -5.91251002e-16 
5.46720434 6.00818276e-17 
5.44293033 1.53538309e-15 
5.46720434 3.53986142e-16 
5.44293033 1.82775739e-15 
5.97257054 -2.02714122e-15 
5.80052309 5.32501475e-16 
5.97257054 -2.25569444e-15 
5.80052309 8.44385996e-16 
5.80052309 5.69398936e-16 
5.65218645 -6.52262891e-16 
5.80052309 8.51267821e-16 
5.65218645 -8.31314705e-16 
5.65218645 -4.41702299e-17 
5.53849514 1.30172041e-15 
5.65218645 -8.01908373e-16 
5.53849514 5.78520497e-16 
5.53849514 7.60707572e-16 
5.46720434 -5.91251002e-16 
5.53849514 -2.06823631e-16 
5.46720434 -1.72832736e-15 
5.46720434 3.53986142e-16 
5.44293033 1.82775739e-15 
5.46720434 -3.72265189e-16 
5.44293033 1.1401069e-15 
5.97257054 -2.25569444e-15 
5.80052309 8.44385996e-16 
5.97257054 -1.34844805e-15 
5.80052309 6.93107266e-16 
5.80052309 8.51267821e-16 
5.65218645 -8.31314705e-16 
5.80052309 1.11853203e-15 
5.65218645 9.39588385e-17 
5.65218645 -8.01908373e-16 
5.53849514 5.78520497e-16 
5.65218645 -3.65661824e-16 
5.53849514 6.53469495e-16 
5.53849514 -2.06823631e-16 
5.46720434 -1.72832736e-15 
5.53849514 2.30396774e-16 
5.46720434 -9.13033666e-16 
5.46720434 -3.72265189e-16 
5.44293033 1.1401069e-15 
5.46720434 -3.74686646e-16 
5.44293033 1.05508035e-15 
5.97257054 -1.34844805e-15 
5.80052309 6.93107266e-16 
5.97257054 -1.5070508e-15 
5.80052309 1.73405909e-16 
5.80052309 1.11853203e-15 
5.65218645 9.39588385e-17 
5.80052309 1.15572648e-15 
5.65218645 -1.50841619e-16 
5.65218645 -3.65661824e-16 
5.53849514 6.53469495e-16 
5.65218645 -3.53310672e-17 
5.53849514 7.13899974e-16 
5.53849514 2.30396774e-16 
5.46720434 -9.13033666e-16 
5.53849514 4.08271268e-17 
5.46720434 -7.67214427e-16 
5.46720434 -3.74686646e-16 
5.44293033 1.05508035e-15 
5.46720434 -2.66961583e-16 
5.44293033 9.44218758e-16 
5.97257054 -1.5070508e-15 
5.80052309 1.73405909e-16 
5.97257054 0 
5.80052309 0 
5.80052309 1.15572648e-15 
5.65218645 -1.50841619e-16 
5.80052309 0 
5.65218645 0 
5.65218645 -3.53310672e-17 
5.53849514 7.13899974e-16 
5.65218645 0 
5.53849514 0 
5.53849514 4.08271268e-17 
5.46720434 -7.67214427e-16 
5.53849514 0 
5.46720434 0 
5.46720434 -2.66961583e-16 
5.44293033 9.44218758e-16 
5.46720434 0 
5.44293033 0 
</DataArray>
<DataArray type="Float64" Name="temperature" NumberOfComponents="1"  format="ascii" >
0.418947705
0.418947705
0.418947705
0.418947705
0.322371115
0.322371115
0.322371115
0.322371115
0.228312364
0.228312364
0.228312364
0.228312364
0.13618078
0.13618078
0.13618078
0.13618078
0.0452566111
0.0452566111
0.0452566111
0.0452566111
0.418947705
0.418947705
0.418947705
0.418947705
0.322371115
0.322371115
0.322371115
0.322371115
0.228312364
0.228312364
0.228312364
0.228312364
0.13618078
0.13618078
0.13618078
0.13618078
0.0452566111
0.0452566111
0.0452566111
0.0452566111
0.418947705
0.418947705
0.418947705
0.418947705
0.322371115
0.322371115
0.322371115
0.322371115
0.228312364
0.228312364
0.228312364
0.228312364
0.13618078
0.13618078
0.13618078
0.13618078
0.0452566111
0.0452566111
0.0452566111
0.0452566111
0.418947705
0.418947705
0.418947705
0.418947705
0.322371115
0.322371115
0.322371115
0.322371115
0.228312364
0.228312364
0.228312364
0.228312364
0.13618078
0.13618078
0.13618078
0.13618078
0.0452566111
0.0452566111
0.0452566111
0.0452566111
0.418947705
0.418947705
0.418947705
0.418947705
0.322371115
0.322371115
0.322371115
0.322371115
0.228312364
0.228312364
0.228312364
0.228312364
0.13618078
0.13618078
0.13618078
0.13618078
0.0452566111
0.0452566111
0.0452566111
0.0452566111
</DataArray>
<DataArray type="Float64" Name="time_integrated_heat_flux" NumberOfComponents="2" ComponentName0="0" ComponentName1="1" format="ascii" >
0.497634195 -1.6703292e-16 
0.455739424 -2.7659921e-18 
0.497634195 -1.5685617e-16 
0.455739424 4.33005556e-17 
0.455739424 4.71502378e-17 
0.423502313 -4.4151723e-17 
0.455739424 7.67802845e-17 
0.423502313 -6.25283089e-17 
0.423502313 -2.39955561e-17 
0.400671076 1.33831146e-16 
0.423502313 -7.5348725e-18 
0.400671076 1.03109548e-16 
0.400671076 3.71582484e-17 
0.387052998 -9.00506525e-17 
0.400671076 1.88867886e-17 
0.387052998 -5.94023785e-17 
0.387052998 3.21214099e-19 
0.382527337 1.09939582e-16 
0.387052998 2.73709861e-17 
0.382527337 1.43961953e-16 
0.497634195 -1.5685617e-16 
0.455739424 4.33005556e-17 
0.497634195 -1.93721392e-16 
0.455739424 5.12411193e-17 
0.455739424 7.67802845e-17 
0.423502313 -6.25283089e-17 
0.455739424 7.28148715e-17 
0.423502313 -5.52270235e-17 
0.423502313 -7.5348725e-18 
0.400671076 1.03109548e-16 
0.423502313 -8.62706491e-17 
0.400671076 5.52489021e-17 
0.400671076 1.88867886e-17 
0.387052998 -5.94023785e-17 
0.400671076 -2.2381039e-17 
0.387052998 -1.12120125e-16 
0.387052998 2.73709861e-17 
0.382527337 1.43961953e-16 
0.387052998 -1.35766197e-17 
0.382527337 8.8527627e-17 
0.497634195 -1.93721392e-16 
0.455739424 5.12411193e-17 
0.497634195 -1.49738689e-16 
0.455739424 6.62337832e-17 
0.455739424 7.28148715e-17 
0.423502313 -5.52270235e-17 
0.455739424 6.38087402e-17 
0.423502313 4.0057536e-18 
0.423502313 -8.62706491e-17 
0.400671076 5.52489021e-17 
0.423502313 -1.9290553e-17 
0.400671076 6.13358725e-17 
0.400671076 -2.2381039e-17 
0.387052998 -1.12120125e-16 
0.400671076 -1.52411507e-17 
0.387052998 -7.87806325e-17 
0.387052998 -1.35766197e-17 
0.382527337 8.8527627e-17 
0.387052998 -3.32671094e-17 
0.382527337 6.16406751e-17 
0.497634195 -1.49738689e-16 
0.455739424 6.62337832e-17 
0.497634195 -1.27316472e-16 
0.455739424 5.44447406e-17 
0.455739424 6.38087402e-17 
0.423502313 4.0057536e-18 
0.455739424 9.53811656e-17 
0.423502313 -3.40494395e-17 
0.423502313 -1.9290553e-17 
0.400671076 6.13358725e-17 
0.423502313 -2.93912826e-17 
0.400671076 4.06524547e-17 
0.400671076 -1.52411507e-17 
0.387052998 -7.87806325e-17 
0.400671076 2.20672398e-18 
0.387052998 -5.81108378e-17 
0.387052998 -3.32671094e-17 
0.382527337 6.16406751e-17 
0.387052998 -2.20500016e-17 
0.382527337 6.10761834e-17 
0.497634195 -1.27316472e-16 
0.455739424 5.44447406e-17 
0.497634195 0 
0.455739424 0 
0.455739424 9.53811656e-17 
0.423502313 -3.40494395e-17 
0.455739424 0 
0.423502313 0 
0.423502313 -2.93912826e-17 
0.400671076 4.06524547e-17 
0.423502313 0 
0.400671076 0 
0.400671076 2.20672398e-18 
0.387052998 -5.81108378e-17 
0.400671076 0 
0.387052998 0 
0.387052998 -2.20500016e-17 
0.382527337 6.10761834e-17 
0.387052998 0 
0.382527337 0 
</DataArray>
</PointData>
</Piece>
</UnstructuredGrid>
</VTKFile>
