<VTKFile type="UnstructuredGrid" version="2.2" byte_order="LittleEndian">
<UnstructuredGrid>
<Piece NumberOfPoints="400" NumberOfCells="100">
<Points>
<DataArray type="Float64" NumberOfComponents="3" format="ascii">
0 0 0
0.1 0 0
0 0.1 0
0.1 0.1 0
0.1 0 0
0.2 0 0
0.1 0.1 0
0.2 0.1 0
0.2 0 0
0.3 0 0
0.2 0.1 0
0.3 0.1 0
0.3 0 0
0.4 0 0
0.3 0.1 0
0.4 0.1 0
0.4 0 0
0.5 0 0
0.4 0.1 0
0.5 0.1 0
0.5 0 0
0.6 0 0
0.5 0.1 0
0.6 0.1 0
0.6 0 0
0.7 0 0
0.6 0.1 0
0.7 0.1 0
0.7 0 0
0.8 0 0
0.7 0.1 0
0.8 0.1 0
0.8 0 0
0.9 0 0
0.8 0.1 0
0.9 0.1 0
0.9 0 0
1 0 0
0.9 0.1 0
1 0.1 0
0 0.1 0
0.1 0.1 0
0 0.2 0
0.1 0.2 0
0.1 0.1 0
0.2 0.1 0
0.1 0.2 0
0.2 0.2 0
0.2 0.1 0
0.3 0.1 0
0.2 0.2 0
0.3 0.2 0
0.3 0.1 0
0.4 0.1 0
0.3 0.2 0
0.4 0.2 0
0.4 0.1 0
0.5 0.1 0
0.4 0.2 0
0.5 0.2 0
0.5 0.1 0
0.6 0.1 0
0.5 0.2 0
0.6 0.2 0
0.6 0.1 0
0.7 0.1 0
0.6 0.2 0
0.7 0.2 0
0.7 0.1 0
0.8 0.1 0
0.7 0.2 0
0.8 0.2 0
0.8 0.1 0
0.9 0.1 0
0.8 0.2 0
0.9 0.2 0
0.9 0.1 0
1 0.1 0
0.9 0.2 0
1 0.2 0
0 0.2 0
0.1 0.2 0
0 0.3 0
0.1 0.3 0
0.1 0.2 0
0.2 0.2 0
0.1 0.3 0
0.2 0.3 0
0.2 0.2 0
0.3 0.2 0
0.2 0.3 0
0.3 0.3 0
0.3 0.2 0
0.4 0.2 0
0.3 0.3 0
0.4 0.3 0
0.4 0.2 0
0.5 0.2 0
0.4 0.3 0
0.5 0.3 0
0.5 0.2 0
0.6 0.2 0
0.5 0.3 0
0.6 0.3 0
0.6 0.2 0
0.7 0.2 0
0.6 0.3 0
0.7 0.3 0
0.7 0.2 0
0.8 0.2 0
0.7 0.3 0
0.8 0.3 0
0.8 0.2 0
0.9 0.2 0
0.8 0.3 0
0.9 0.3 0
0.9 0.2 0
1 0.2 0
0.9 0.3 0
1 0.3 0
0 0.3 0
0.1 0.3 0
0 0.4 0
0.1 0.4 0
0.1 0.3 0
0.2 0.3 0
0.1 0.4 0
0.2 0.4 0
0.2 0.3 0
0.3 0.3 0
0.2 0.4 0
0.3 0.4 0
0.3 0.3 0
0.4 0.3 0
0.3 0.4 0
0.4 0.4 0
0.4 0.3 0
0.5 0.3 0
0.4 0.4 0
0.5 0.4 0
0.5 0.3 0
0.6 0.3 0
0.5 0.4 0
0.6 0.4 0
0.6 0.3 0
0.7 0.3 0
0.6 0.4 0
0.7 0.4 0
0.7 0.3 0
0.8 0.3 0
0.7 0.4 0
0.8 0.4 0
0.8 0.3 0
0.9 0.3 0
0.8 0.4 0
0.9 0.4 0
0.9 0.3 0
1 0.3 0
0.9 0.4 0
1 0.4 0
0 0.4 0
0.1 0.4 0
0 0.5 0
0.1 0.5 0
0.1 0.4 0
0.2 0.4 0
0.1 0.5 0
0.2 0.5 0
0.2 0.4 0
0.3 0.4 0
0.2 0.5 0
0.3 0.5 0
0.3 0.4 0
0.4 0.4 0
0.3 0.5 0
0.4 0.5 0
0.4 0.4 0
0.5 0.4 0
0.4 0.5 0
0.5 0.5 0
0.5 0.4 0
0.6 0.4 0
0.5 0.5 0
0.6 0.5 0
0.6 0.4 0
0.7 0.4 0
0.6 0.5 0
0.7 0.5 0
0.7 0.4 0
0.8 0.4 0
0.7 0.5 0
0.8 0.5 0
0.8 0.4 0
0.9 0.4 0
0.8 0.5 0
0.9 0.5 0
0.9 0.4 0
1 0.4 0
0.9 0.5 0
1 0.5 0
0 0.5 0
0.1 0.5 0
0 0.6 0
0.1 0.6 0
0.1 0.5 0
0.2 0.5 0
0.1 0.6 0
0.2 0.6 0
0.2 0.5 0
0.3 0.5 0
0.2 0.6 0
0.3 0.6 0
0.3 0.5 0
0.4 0.5 0
0.3 0.6 0
0.4 0.6 0
0.4 0.5 0
0.5 0.5 0
0.4 0.6 0
0.5 0.6 0
0.5 0.5 0
0.6 0.5 0
0.5 0.6 0
0.6 0.6 0
0.6 0.5 0
0.7 0.5 0
0.6 0.6 0
0.7 0.6 0
0.7 0.5 0
0.8 0.5 0
0.7 0.6 0
0.8 0.6 0
0.8 0.5 0
0.9 0.5 0
0.8 0.6 0
0.9 0.6 0
0.9 0.5 0
1 0.5 0
0.9 0.6 0
1 0.6 0
0 0.6 0
0.1 0.6 0
0 0.7 0
0.1 0.7 0
0.1 0.6 0
0.2 0.6 0
0.1 0.7 0
0.2 0.7 0
0.2 0.6 0
0.3 0.6 0
0.2 0.7 0
0.3 0.7 0
0.3 0.6 0
0.4 0.6 0
0.3 0.7 0
0.4 0.7 0
0.4 0.6 0
0.5 0.6 0
0.4 0.7 0
0.5 0.7 0
0.5 0.6 0
0.6 0.6 0
0.5 0.7 0
0.6 0.7 0
0.6 0.6 0
0.7 0.6 0
0.6 0.7 0
0.7 0.7 0
0.7 0.6 0
0.8 0.6 0
0.7 0.7 0
0.8 0.7 0
0.8 0.6 0
0.9 0.6 0
0.8 0.7 0
0.9 0.7 0
0.9 0.6 0
1 0.6 0
0.9 0.7 0
1 0.7 0
0 0.7 0
0.1 0.7 0
0 0.8 0
0.1 0.8 0
0.1 0.7 0
0.2 0.7 0
0.1 0.8 0
0.2 0.8 0
0.2 0.7 0
0.3 0.7 0
0.2 0.8 0
0.3 0.8 0
0.3 0.7 0
0.4 0.7 0
0.3 0.8 0
0.4 0.8 0
0.4 0.7 0
0.5 0.7 0
0.4 0.8 0
0.5 0.8 0
0.5 0.7 0
0.6 0.7 0
0.5 0.8 0
0.6 0.8 0
0.6 0.7 0
0.7 0.7 0
0.6 0.8 0
0.7 0.8 0
0.7 0.7 0
0.8 0.7 0
0.7 0.8 0
0.8 0.8 0
0.8 0.7 0
0.9 0.7 0
0.8 0.8 0
0.9 0.8 0
0.9 0.7 0
1 0.7 0
0.9 0.8 0
1 0.8 0
0 0.8 0
0.1 0.8 0
0 0.9 0
0.1 0.9 0
0.1 0.8 0
0.2 0.8 0
0.1 0.9 0
0.2 0.9 0
0.2 0.8 0
0.3 0.8 0
0.2 0.9 0
0.3 0.9 0
0.3 0.8 0
0.4 0.8 0
0.3 0.9 0
0.4 0.9 0
0.4 0.8 0
0.5 0.8 0
0.4 0.9 0
0.5 0.9 0
0.5 0.8 0
0.6 0.8 0
0.5 0.9 0
0.6 0.9 0
0.6 0.8 0
0.7 0.8 0
0.6 0.9 0
0.7 0.9 0
0.7 0.8 0
0.8 0.8 0
0.7 0.9 0
0.8 0.9 0
0.8 0.8 0
0.9 0.8 0
0.8 0.9 0
0.9 0.9 0
0.9 0.8 0
1 0.8 0
0.9 0.9 0
1 0.9 0
0 0.9 0
0.1 0.9 0
0 1 0
0.1 1 0
0.1 0.9 0
0.2 0.9 0
0.1 1 0
0.2 1 0
0.2 0.9 0
0.3 0.9 0
0.2 1 0
0.3 1 0
0.3 0.9 0
0.4 0.9 0
0.3 1 0
0.4 1 0
0.4 0.9 0
0.5 0.9 0
0.4 1 0
0.5 1 0
0.5 0.9 0
0.6 0.9 0
0.5 1 0
0.6 1 0
0.6 0.9 0
0.7 0.9 0
0.6 1 0
0.7 1 0
0.7 0.9 0
0.8 0.9 0
0.7 1 0
0.8 1 0
0.8 0.9 0
0.9 0.9 0
0.8 1 0
0.9 1 0
0.9 0.9 0
1 0.9 0
0.9 1 0
1 1 0
</DataArray>
</Points>
<Cells>
<DataArray type="Int32" Name="connectivity" format="ascii">
0 1 3 2 
4 5 7 6 
8 9 11 10 
12 13 15 14 
16 17 19 18 
20 21 23 22 
24 25 27 26 
28 29 31 30 
32 33 35 34 
36 37 39 38 
40 41 43 42 
44 45 47 46 
48 49 51 50 
52 53 55 54 
56 57 59 58 
60 61 63 62 
64 65 67 66 
68 69 71 70 
72 73 75 74 
76 77 79 78 
80 81 83 82 
84 85 87 86 
88 89 91 90 
92 93 95 94 
96 97 99 98 
100 101 103 102 
104 105 107 106 
108 109 111 110 
112 113 115 114 
116 117 119 118 
120 121 123 122 
124 125 127 126 
128 129 131 130 
132 133 135 134 
136 137 139 138 
140 141 143 142 
144 145 147 146 
148 149 151 150 
152 153 155 154 
156 157 159 158 
160 161 163 162 
164 165 167 166 
168 169 171 170 
172 173 175 174 
176 177 179 178 
180 181 183 182 
184 185 187 186 
188 189 191 190 
192 193 195 194 
196 197 199 198 
200 201 203 202 
204 205 207 206 
208 209 211 210 
212 213 215 214 
216 217 219 218 
220 221 223 222 
224 225 227 226 
228 229 231 230 
232 233 235 234 
236 237 239 238 
240 241 243 242 
244 245 247 246 
248 249 251 250 
252 253 255 254 
256 257 259 258 
260 261 263 262 
264 265 267 266 
268 269 271 270 
272 273 275 274 
276 277 279 278 
280 281 283 282 
284 285 287 286 
288 289 291 290 
292 293 295 294 
296 297 299 298 
300 301 303 302 
304 305 307 306 
308 309 311 310 
312 313 315 314 
316 317 319 318 
320 321 323 322 
324 325 327 326 
328 329 331 330 
332 333 335 334 
336 337 339 338 
340 341 343 342 
344 345 347 346 
348 349 351 350 
352 353 355 354 
356 357 359 358 
360 361 363 362 
364 365 367 366 
368 369 371 370 
372 373 375 374 
376 377 379 378 
380 381 383 382 
384 385 387 386 
388 389 391 390 
392 393 395 394 
396 397 399 398 
</DataArray>
<DataArray type="Int32" Name="offsets" format="ascii">
4
8
12
16
20
24
28
32
36
40
44
48
52
56
60
64
68
72
76
80
84
88
92
96
100
104
108
112
116
120
124
128
132
136
140
144
148
152
156
160
164
168
172
176
180
184
188
192
196
200
204
208
212
216
220
224
228
232
236
240
244
248
252
256
260
264
268
272
276
280
284
288
292
296
300
304
308
312
316
320
324
328
332
336
340
344
348
352
356
360
364
368
372
376
380
384
388
392
396
400
</DataArray>
<DataArray type="UInt8" Name="types" format="ascii">
9
9
9
9
9
9
9
9
9
9
9
9
9
9
9
9
9
9
9
9
9
9
9
9
9
9
9
9
9
9
9
9
9
9
9
9
9
9
9
9
9
9
9
9
9
9
9
9
9
9
9
9
9
9
9
9
9
9
9
9
9
9
9
9
9
9
9
9
9
9
9
9
9
9
9
9
9
9
9
9
9
9
9
9
9
9
9
9
9
9
9
9
9
9
9
9
9
9
9
9
</DataArray>
</Cells>
<CellData Scalars="attribute">
<DataArray type="Int32" Name="attribute" format="ascii">
1
1
1
1
1
1
1
1
1
1
1
1
1
1
1
1
1
1
1
1
1
1
1
1
1
1
1
1
1
1
1
1
1
1
1
1
1
1
1
1
1
1
1
1
1
1
1
1
1
1
1
1
1
1
1
1
1
1
1
1
1
1
1
1
1
1
1
1
1
1
1
1
1
1
1
1
1
1
1
1
1
1
1
1
1
1
1
1
1
1
1
1
1
1
1
1
1
1
1
1
</DataArray>
</CellData>
<PointData >
<DataArray type="Float64" Name="dtemperature_dt" NumberOfComponents="1"  format="ascii" >
0.0520110603
2.19494656
0.0520110603
2.19494656
2.21520278
3.34181487
2.21520278
3.34181487
3.31991849
3.52418045
3.31991849
3.52418045
3.4997098
3.15393414
3.4997098
3.15393414
3.13706092
2.55520007
3.13706092
2.55520007
2.54611955
1.92058613
2.54611955
1.92058613
1.91701767
1.33959439
1.91701767
1.33959439
1.33931465
0.836471849
1.33931465
0.836471849
0.837922668
0.399357185
0.837922668
0.399357185
0.401592507
-0.00122740361
0.401592507
-0.00122740361
0.0520110603
2.19494656
0.0520110603
2.19494656
2.21520278
3.34181487
2.21520278
3.34181487
3.31991849
3.52418045
3.31991849
3.52418045
3.4997098
3.15393414
3.4997098
3.15393414
3.13706092
2.55520007
3.13706092
2.55520007
2.54611955
1.92058613
2.54611955
1.92058613
1.91701767
1.33959439
1.91701767
1.33959439
1.33931465
0.836471849
1.33931465
0.836471849
0.837922668
0.399357185
0.837922668
0.399357185
0.401592507
-0.00122740361
0.401592507
-0.00122740361
0.0520110603
2.19494656
0.0520110603
2.19494656
2.21520278
3.34181487
2.21520278
3.34181487
3.31991849
3.52418045
3.31991849
3.52418045
3.4997098
3.15393414
3.4997098
3.15393414
3.13706092
2.55520007
3.13706092
2.55520007
2.54611955
1.92058613
2.54611955
1.92058613
1.91701767
1.33959439
1.91701767
1.33959439
1.33931465
0.836471849
1.33931465
0.836471849
0.837922668
0.399357185
0.837922668
0.399357185
0.401592507
-0.00122740361
0.401592507
-0.00122740361
0.0520110603
2.19494656
0.0520110603
2.19494656
2.21520278
3.34181487
2.21520278
3.34181487
3.31991849
3.52418045
3.31991849
3.52418045
3.4997098
3.15393414
3.4997098
3.15393414
3.13706092
2.55520007
3.13706092
2.55520007
2.54611955
1.92058613
2.54611955
1.92058613
1.91701767
1.33959439
1.91701767
1.33959439
1.33931465
0.836471849
1.33931465
0.836471849
0.837922668
0.399357185
0.837922668
0.399357185
0.401592507
-0.00122740361
0.401592507
-0.00122740361
0.0520110603
2.19494656
0.0520110603
2.19494656
2.21520278
3.34181487
2.21520278
3.34181487
3.31991849
3.52418045
3.31991849
3.52418045
3.4997098
3.15393414
3.4997098
3.15393414
3.13706092
2.55520007
3.13706092
2.55520007
2.54611955
1.92058613
2.54611955
1.92058613
1.91701767
1.33959439
1.91701767
1.33959439
1.33931465
0.836471849
1.33931465
0.836471849
0.837922668
0.399357185
0.837922668
0.399357185
0.401592507
-0.00122740361
0.401592507
-0.00122740361
0.0520110603
2.19494656
0.0520110603
2.19494656
2.21520278
3.34181487
2.21520278
3.34181487
3.31991849
3.52418045
3.31991849
3.52418045
3.4997098
3.15393414
3.4997098
3.15393414
3.13706092
2.55520007
3.13706092
2.55520007
2.54611955
1.92058613
2.54611955
1.92058613
1.91701767
1.33959439
1.91701767
1.33959439
1.33931465
0.836471849
1.33931465
0.836471849
0.837922668
0.399357185
0.837922668
0.399357185
0.401592507
-0.00122740361
0.401592507
-0.00122740361
0.0520110603
2.19494656
0.0520110603
2.19494656
2.21520278
3.34181487
2.21520278
3.34181487
3.31991849
3.52418045
3.31991849
3.52418045
3.4997098
3.15393414
3.4997098
3.15393414
3.13706092
2.55520007
3.13706092
2.55520007
2.54611955
1.92058613
2.54611955
1.92058613
1.91701767
1.33959439
1.91701767
1.33959439
1.33931465
0.836471849
1.33931465
0.836471849
0.837922668
0.399357185
0.837922668
0.399357185
0.401592507
-0.00122740361
0.401592507
-0.00122740361
0.0520110603
2.19494656
0.0520110603
2.19494656
2.21520278
3.34181487
2.21520278
3.34181487
3.31991849
3.52418045
3.31991849
3.52418045
3.4997098
3.15393414
3.4997098
3.15393414
3.13706092
2.55520007
3.13706092
2.55520007
2.54611955
1.92058613
2.54611955
1.92058613
1.91701767
1.33959439
1.91701767
1.33959439
1.33931465
0.836471849
1.33931465
0.836471849
0.837922668
0.399357185
0.837922668
0.399357185
0.401592507
-0.00122740361
0.401592507
-0.00122740361
0.0520110603
2.19494656
0.0520110603
2.19494656
2.21520278
3.34181487
2.21520278
3.34181487
3.31991849
3.52418045
3.31991849
3.52418045
3.4997098
3.15393414
3.4997098
3.15393414
3.13706092
2.55520007
3.13706092
2.55520007
2.54611955
1.92058613
2.54611955
1.92058613
1.91701767
1.33959439
1.91701767
1.33959439
1.33931465
0.836471849
1.33931465
0.836471849
0.837922668
0.399357185
0.837922668
0.399357185
0.401592507
-0.00122740361
0.401592507
-0.00122740361
0.0520110603
2.19494656
0.0520110603
2.19494656
2.21520278
3.34181487
2.21520278
3.34181487
3.31991849
3.52418045
3.31991849
3.52418045
3.4997098
3.15393414
3.4997098
3.15393414
3.13706092
2.55520007
3.13706092
2.55520007
2.54611955
1.92058613
2.54611955
1.92058613
1.91701767
1.33959439
1.91701767
1.33959439
1.33931465
0.836471849
1.33931465
0.836471849
0.837922668
0.399357185
0.837922668
0.399357185
0.401592507
-0.00122740361
0.401592507
-0.00122740361
</DataArray>
<DataArray type="Float64" Name="heat_flux" NumberOfComponents="2" ComponentName0="0" ComponentName1="1" format="ascii" >
2.16730833 0 
2.05496045 0 
2.16730833 3.71794971e-15 
2.05496045 -2.86130658e-15 
2.05496045 0 
1.77710956 0 
2.05496045 2.18493989e-16 
1.77710956 7.02576161e-16 
1.77710956 0 
1.43490462 0 
1.77710956 1.68376258e-16 
1.43490462 1.85534303e-16 
1.43490462 0 
1.10222242 0 
1.43490462 -1.1185389e-15 
1.10222242 9.84065619e-16 
1.10222242 0 
0.81760937 0 
1.10222242 -5.06480872e-16 
0.81760937 -4.82595677e-17 
0.81760937 0 
0.594274087 0 
0.81760937 -3.76715277e-16 
0.594274087 6.95010582e-16 
0.594274087 0 
0.431443484 0 
0.594274087 -5.55080126e-16 
0.431443484 2.87872583e-17 
0.431443484 0 
0.322654159 0 
0.431443484 3.49145079e-17 
0.322654159 -8.19646531e-17 
0.322654159 0 
0.260790166 0 
0.322654159 2.18815051e-16 
0.260790166 -2.05862159e-16 
0.260790166 0 
0.240771911 0 
0.260790166 3.20384099e-17 
0.240771911 -4.25288871e-17 
2.16730833 3.71794971e-15 
2.05496045 -2.86130658e-15 
2.16730833 3.13540582e-15 
2.05496045 -2.4973353e-15 
2.05496045 2.18493989e-16 
1.77710956 7.02576161e-16 
2.05496045 8.52765627e-16 
1.77710956 -8.73727419e-16 
1.77710956 1.68376258e-16 
1.43490462 1.85534303e-16 
1.77710956 9.23228222e-17 
1.43490462 -9.5513388e-16 
1.43490462 -1.1185389e-15 
1.10222242 9.84065619e-16 
1.43490462 1.41910242e-15 
1.10222242 -1.13133053e-15 
1.10222242 -5.06480872e-16 
0.81760937 -4.82595677e-17 
1.10222242 -3.23965664e-16 
0.81760937 -1.77013617e-16 
0.81760937 -3.76715277e-16 
0.594274087 6.95010582e-16 
0.81760937 -2.91518286e-16 
0.594274087 2.09872777e-16 
0.594274087 -5.55080126e-16 
0.431443484 2.87872583e-17 
0.594274087 -1.33036384e-16 
0.431443484 -7.09128468e-18 
0.431443484 3.49145079e-17 
0.322654159 -8.19646531e-17 
0.431443484 1.61714875e-16 
0.322654159 -7.9006673e-17 
0.322654159 2.18815051e-16 
0.260790166 -2.05862159e-16 
0.322654159 -7.80078728e-17 
0.260790166 1.18899498e-16 
0.260790166 3.20384099e-17 
0.240771911 -4.25288871e-17 
0.260790166 1.51054058e-18 
0.240771911 1.99687598e-17 
2.16730833 3.13540582e-15 
2.05496045 -2.4973353e-15 
2.16730833 7.81997191e-17 
2.05496045 -3.31465601e-15 
2.05496045 8.52765627e-16 
1.77710956 -8.73727419e-16 
2.05496045 2.88989539e-16 
1.77710956 -4.5270691e-16 
1.77710956 9.23228222e-17 
1.43490462 -9.5513388e-16 
1.77710956 2.79074733e-16 
1.43490462 -9.8989637e-16 
1.43490462 1.41910242e-15 
1.10222242 -1.13133053e-15 
1.43490462 1.99308336e-15 
1.10222242 -1.52030474e-15 
1.10222242 -3.23965664e-16 
0.81760937 -1.77013617e-16 
1.10222242 -8.06771445e-17 
0.81760937 2.96737377e-16 
0.81760937 -2.91518286e-16 
0.594274087 2.09872777e-16 
0.81760937 -7.48514436e-16 
0.594274087 5.58616607e-16 
0.594274087 -1.33036384e-16 
0.431443484 -7.09128468e-18 
0.594274087 -8.90490052e-17 
0.431443484 -7.62404442e-17 
0.431443484 1.61714875e-16 
0.322654159 -7.9006673e-17 
0.431443484 3.87975007e-16 
0.322654159 -2.89711674e-16 
0.322654159 -7.80078728e-17 
0.260790166 1.18899498e-16 
0.322654159 6.93189889e-17 
0.260790166 5.77385386e-17 
0.260790166 1.51054058e-18 
0.240771911 1.99687598e-17 
0.260790166 -1.40192985e-16 
0.240771911 6.44575943e-17 
2.16730833 7.81997191e-17 
2.05496045 -3.31465601e-15 
2.16730833 2.28480597e-15 
2.05496045 -2.1592134e-15 
2.05496045 2.88989539e-16 
1.77710956 -4.5270691e-16 
2.05496045 4.10137299e-15 
1.77710956 -3.79002348e-15 
1.77710956 2.79074733e-16 
1.43490462 -9.8989637e-16 
1.77710956 1.81561317e-15 
1.43490462 -3.30304533e-16 
1.43490462 1.99308336e-15 
1.10222242 -1.52030474e-15 
1.43490462 1.23743294e-15 
1.10222242 -1.42359473e-15 
1.10222242 -8.06771445e-17 
0.81760937 2.96737377e-16 
1.10222242 -9.57099325e-17 
0.81760937 5.4623966e-16 
0.81760937 -7.48514436e-16 
0.594274087 5.58616607e-16 
0.81760937 -1.10674851e-15 
0.594274087 8.25458635e-16 
0.594274087 -8.90490052e-17 
0.431443484 -7.62404442e-17 
0.594274087 -1.65100181e-16 
0.431443484 1.42096533e-16 
0.431443484 3.87975007e-16 
0.322654159 -2.89711674e-16 
0.431443484 -1.99432332e-17 
0.322654159 2.08253749e-16 
0.322654159 6.93189889e-17 
0.260790166 5.77385386e-17 
0.322654159 1.78400534e-17 
0.260790166 4.17841752e-17 
0.260790166 -1.40192985e-16 
0.240771911 6.44575943e-17 
0.260790166 -8.61842461e-17 
0.240771911 2.38172815e-17 
2.16730833 2.28480597e-15 
2.05496045 -2.1592134e-15 
2.16730833 -5.9984335e-16 
2.05496045 -1.2498467e-16 
2.05496045 4.10137299e-15 
1.77710956 -3.79002348e-15 
2.05496045 5.68463401e-16 
1.77710956 1.08013821e-15 
1.77710956 1.81561317e-15 
1.43490462 -3.30304533e-16 
1.77710956 -5.24505149e-16 
1.43490462 -8.23073544e-16 
1.43490462 1.23743294e-15 
1.10222242 -1.42359473e-15 
1.43490462 1.11774982e-15 
1.10222242 -8.38333854e-16 
1.10222242 -9.57099325e-17 
0.81760937 5.4623966e-16 
1.10222242 8.72211651e-17 
0.81760937 2.46408409e-16 
0.81760937 -1.10674851e-15 
0.594274087 8.25458635e-16 
0.81760937 -8.417903e-16 
0.594274087 5.18872989e-16 
0.594274087 -1.65100181e-16 
0.431443484 1.42096533e-16 
0.594274087 -2.5206069e-16 
0.431443484 -2.88622959e-18 
0.431443484 -1.99432332e-17 
0.322654159 2.08253749e-16 
0.431443484 2.27072999e-16 
0.322654159 5.71063501e-17 
0.322654159 1.78400534e-17 
0.260790166 4.17841752e-17 
0.322654159 -6.98714651e-17 
0.260790166 1.31461862e-16 
0.260790166 -8.61842461e-17 
0.240771911 2.38172815e-17 
0.260790166 -6.98094317e-17 
0.240771911 -6.35012863e-18 
2.16730833 -5.9984335e-16 
2.05496045 -1.2498467e-16 
2.16730833 1.83620544e-15 
2.05496045 -2.43714295e-15 
2.05496045 5.68463401e-16 
1.77710956 1.08013821e-15 
2.05496045 4.13140896e-15 
1.77710956 -1.02497069e-15 
1.77710956 -5.24505149e-16 
1.43490462 -8.23073544e-16 
1.77710956 1.22359884e-15 
1.43490462 -1.89965988e-16 
1.43490462 1.11774982e-15 
1.10222242 -8.38333854e-16 
1.43490462 7.42937892e-16 
1.10222242 -1.03900317e-15 
1.10222242 8.72211651e-17 
0.81760937 2.46408409e-16 
1.10222242 4.99386024e-16 
0.81760937 -5.60452129e-16 
0.81760937 -8.417903e-16 
0.594274087 5.18872989e-16 
0.81760937 7.99519294e-17 
0.594274087 2.51998872e-16 
0.594274087 -2.5206069e-16 
0.431443484 -2.88622959e-18 
0.594274087 4.55232794e-16 
0.431443484 -7.53532412e-16 
0.431443484 2.27072999e-16 
0.322654159 5.71063501e-17 
0.431443484 2.68960198e-16 
0.322654159 6.44624599e-17 
0.322654159 -6.98714651e-17 
0.260790166 1.31461862e-16 
0.322654159 2.13393754e-16 
0.260790166 -1.6272292e-16 
0.260790166 -6.98094317e-17 
0.240771911 -6.35012863e-18 
0.260790166 -2.742762e-17 
0.240771911 1.3580144e-17 
2.16730833 1.83620544e-15 
2.05496045 -2.43714295e-15 
2.16730833 4.23937392e-15 
2.05496045 -1.20265559e-15 
2.05496045 4.13140896e-15 
1.77710956 -1.02497069e-15 
2.05496045 1.08106782e-16 
1.77710956 3.1576184e-16 
1.77710956 1.22359884e-15 
1.43490462 -1.89965988e-16 
1.77710956 -1.32474654e-15 
1.43490462 1.56292212e-15 
1.43490462 7.42937892e-16 
1.10222242 -1.03900317e-15 
1.43490462 -3.80858397e-16 
1.10222242 1.06938838e-15 
1.10222242 4.99386024e-16 
0.81760937 -5.60452129e-16 
1.10222242 -1.5543155e-16 
0.81760937 -6.56375777e-16 
0.81760937 7.99519294e-17 
0.594274087 2.51998872e-16 
0.81760937 6.27467208e-17 
0.594274087 -6.13565551e-17 
0.594274087 4.55232794e-16 
0.431443484 -7.53532412e-16 
0.594274087 7.02722002e-17 
0.431443484 -1.89407703e-16 
0.431443484 2.68960198e-16 
0.322654159 6.44624599e-17 
0.431443484 -1.64455518e-16 
0.322654159 2.75452084e-16 
0.322654159 2.13393754e-16 
0.260790166 -1.6272292e-16 
0.322654159 -6.54528394e-17 
0.260790166 5.09912621e-17 
0.260790166 -2.742762e-17 
0.240771911 1.3580144e-17 
0.260790166 -1.15709192e-16 
0.240771911 7.70076951e-17 
2.16730833 4.23937392e-15 
2.05496045 -1.20265559e-15 
2.16730833 5.30616705e-15 
2.05496045 -6.26033042e-15 
2.05496045 1.08106782e-16 
1.77710956 3.1576184e-16 
2.05496045 3.32714361e-15 
1.77710956 -2.39140267e-15 
1.77710956 -1.32474654e-15 
1.43490462 1.56292212e-15 
1.77710956 1.58412298e-15 
1.43490462 -7.5167153e-16 
1.43490462 -3.80858397e-16 
1.10222242 1.06938838e-15 
1.43490462 3.52275719e-16 
1.10222242 -6.42220245e-16 
1.10222242 -1.5543155e-16 
0.81760937 -6.56375777e-16 
1.10222242 1.21870433e-16 
0.81760937 -2.71370145e-16 
0.81760937 6.27467208e-17 
0.594274087 -6.13565551e-17 
0.81760937 1.20837096e-16 
0.594274087 -3.20744775e-16 
0.594274087 7.02722002e-17 
0.431443484 -1.89407703e-16 
0.594274087 5.58012843e-16 
0.431443484 -7.55202934e-16 
0.431443484 -1.64455518e-16 
0.322654159 2.75452084e-16 
0.431443484 5.26444161e-16 
0.322654159 -2.18770611e-17 
0.322654159 -6.54528394e-17 
0.260790166 5.09912621e-17 
0.322654159 7.20870306e-17 
0.260790166 4.62178947e-17 
0.260790166 -1.15709192e-16 
0.240771911 7.70076951e-17 
0.260790166 -2.9067784e-18 
0.240771911 -9.47280883e-17 
2.16730833 5.30616705e-15 
2.05496045 -6.26033042e-15 
2.16730833 1.1860799e-15 
2.05496045 -4.65193168e-15 
2.05496045 3.32714361e-15 
1.77710956 -2.39140267e-15 
2.05496045 3.71715204e-15 
1.77710956 -7.16452336e-16 
1.77710956 1.58412298e-15 
1.43490462 -7.5167153e-16 
1.77710956 5.60248506e-17 
1.43490462 -7.70079155e-16 
1.43490462 3.52275719e-16 
1.10222242 -6.42220245e-16 
1.43490462 -3.13967538e-16 
1.10222242 3.44769639e-16 
1.10222242 1.21870433e-16 
0.81760937 -2.71370145e-16 
1.10222242 4.14053264e-16 
0.81760937 -2.74447814e-16 
0.81760937 1.20837096e-16 
0.594274087 -3.20744775e-16 
0.81760937 2.97147586e-16 
0.594274087 -1.99338421e-16 
0.594274087 5.58012843e-16 
0.431443484 -7.55202934e-16 
0.594274087 2.56082895e-16 
0.431443484 -8.80144377e-17 
0.431443484 5.26444161e-16 
0.322654159 -2.18770611e-17 
0.431443484 6.51811345e-17 
0.322654159 1.63478405e-16 
0.322654159 7.20870306e-17 
0.260790166 4.62178947e-17 
0.322654159 6.49338302e-18 
0.260790166 1.30441258e-16 
0.260790166 -2.9067784e-18 
0.240771911 -9.47280883e-17 
0.260790166 -1.89722384e-16 
0.240771911 1.3464471e-16 
2.16730833 1.1860799e-15 
2.05496045 -4.65193168e-15 
2.16730833 0 
2.05496045 0 
2.05496045 3.71715204e-15 
1.77710956 -7.16452336e-16 
2.05496045 0 
1.77710956 0 
1.77710956 5.60248506e-17 
1.43490462 -7.70079155e-16 
1.77710956 0 
1.43490462 0 
1.43490462 -3.13967538e-16 
1.10222242 3.44769639e-16 
1.43490462 0 
1.10222242 0 
1.10222242 4.14053264e-16 
0.81760937 -2.74447814e-16 
1.10222242 0 
0.81760937 0 
0.81760937 2.97147586e-16 
0.594274087 -1.99338421e-16 
0.81760937 0 
0.594274087 0 
0.594274087 2.56082895e-16 
0.431443484 -8.80144377e-17 
0.594274087 0 
0.431443484 0 
0.431443484 6.51811345e-17 
0.322654159 1.63478405e-16 
0.431443484 0 
0.322654159 0 
0.322654159 6.49338302e-18 
0.260790166 1.30441258e-16 
0.322654159 0 
0.260790166 0 
0.260790166 -1.89722384e-16 
0.240771911 1.3464471e-16 
0.260790166 0 
0.240771911 0 
</DataArray>
<DataArray type="Float64" Name="temperature" NumberOfComponents="1"  format="ascii" >
0.999242346
0.785985971
0.999242346
0.785985971
0.784879242
0.592149129
0.784879242
0.592149129
0.591723752
0.430918781
0.591723752
0.430918781
0.430986344
0.304475768
0.430986344
0.304475768
0.304799041
0.209389313
0.304799041
0.209389313
0.209799344
0.139830705
0.209799344
0.139830705
0.140234664
0.089526209
0.140234664
0.089526209
0.0898865309
0.0526844915
0.0898865309
0.0526844915
0.0529970853
0.0242634345
0.0529970853
0.0242634345
0.0245420335
-0.000133250467
0.0245420335
-0.000133250467
0.999242346
0.785985971
0.999242346
0.785985971
0.784879242
0.592149129
0.784879242
0.592149129
0.591723752
0.430918781
0.591723752
0.430918781
0.430986344
0.304475768
0.430986344
0.304475768
0.304799041
0.209389313
0.304799041
0.209389313
0.209799344
0.139830705
0.209799344
0.139830705
0.140234664
0.089526209
0.140234664
0.089526209
0.0898865309
0.0526844915
0.0898865309
0.0526844915
0.0529970853
0.0242634345
0.0529970853
0.0242634345
0.0245420335
-0.000133250467
0.0245420335
-0.000133250467
0.999242346
0.785985971
0.999242346
0.785985971
0.784879242
0.592149129
0.784879242
0.592149129
0.591723752
0.430918781
0.591723752
0.430918781
0.430986344
0.304475768
0.430986344
0.304475768
0.304799041
0.209389313
0.304799041
0.209389313
0.209799344
0.139830705
0.209799344
0.139830705
0.140234664
0.089526209
0.140234664
0.089526209
0.0898865309
0.0526844915
0.0898865309
0.0526844915
0.0529970853
0.0242634345
0.0529970853
0.0242634345
0.0245420335
-0.000133250467
0.0245420335
-0.000133250467
0.999242346
0.785985971
0.999242346
0.785985971
0.784879242
0.592149129
0.784879242
0.592149129
0.591723752
0.430918781
0.591723752
0.430918781
0.430986344
0.304475768
0.430986344
0.304475768
0.304799041
0.209389313
0.304799041
0.209389313
0.209799344
0.139830705
0.209799344
0.139830705
0.140234664
0.089526209
0.140234664
0.089526209
0.0898865309
0.0526844915
0.0898865309
0.0526844915
0.0529970853
0.0242634345
0.0529970853
0.0242634345
0.0245420335
-0.000133250467
0.0245420335
-0.000133250467
0.999242346
0.785985971
0.999242346
0.785985971
0.784879242
0.592149129
0.784879242
0.592149129
0.591723752
0.430918781
0.591723752
0.430918781
0.430986344
0.304475768
0.430986344
0.304475768
0.304799041
0.209389313
0.304799041
0.209389313
0.209799344
0.139830705
0.209799344
0.139830705
0.140234664
0.089526209
0.140234664
0.089526209
0.0898865309
0.0526844915
0.0898865309
0.0526844915
0.0529970853
0.0242634345
0.0529970853
0.0242634345
0.0245420335
-0.000133250467
0.0245420335
-0.000133250467
0.999242346
0.785985971
0.999242346
0.785985971
0.784879242
0.592149129
0.784879242
0.592149129
0.591723752
0.430918781
0.591723752
0.430918781
0.430986344
0.304475768
0.430986344
0.304475768
0.304799041
0.209389313
0.304799041
0.209389313
0.209799344
0.139830705
0.209799344
0.139830705
0.140234664
0.089526209
0.140234664
0.089526209
0.0898865309
0.0526844915
0.0898865309
0.0526844915
0.0529970853
0.0242634345
0.0529970853
0.0242634345
0.0245420335
-0.000133250467
0.0245420335
-0.000133250467
0.999242346
0.785985971
0.999242346
0.785985971
0.784879242
0.592149129
0.784879242
0.592149129
0.591723752
0.430918781
0.591723752
0.430918781
0.430986344
0.304475768
0.430986344
0.304475768
0.304799041
0.209389313
0.304799041
0.209389313
0.209799344
0.139830705
0.209799344
0.139830705
0.140234664
0.089526209
0.140234664
0.089526209
0.0898865309
0.0526844915
0.0898865309
0.0526844915
0.0529970853
0.0242634345
0.0529970853
0.0242634345
0.0245420335
-0.000133250467
0.0245420335
-0.000133250467
0.999242346
0.785985971
0.999242346
0.785985971
0.784879242
0.592149129
0.784879242
0.592149129
0.591723752
0.430918781
0.591723752
0.430918781
0.430986344
0.304475768
0.430986344
0.304475768
0.304799041
0.209389313
0.304799041
0.209389313
0.209799344
0.139830705
0.209799344
0.139830705
0.140234664
0.089526209
0.140234664
0.089526209
0.0898865309
0.0526844915
0.0898865309
0.0526844915
0.0529970853
0.0242634345
0.0529970853
0.0242634345
0.0245420335
-0.000133250467
0.0245420335
-0.000133250467
0.999242346
0.785985971
0.999242346
0.785985971
0.784879242
0.592149129
0.784879242
0.592149129
0.591723752
0.430918781
0.591723752
0.430918781
0.430986344
0.304475768
0.430986344
0.304475768
0.304799041
0.209389313
0.304799041
0.209389313
0.209799344
0.139830705
0.209799344
0.139830705
0.140234664
0.089526209
0.140234664
0.089526209
0.0898865309
0.0526844915
0.0898865309
0.0526844915
0.0529970853
0.0242634345
0.0529970853
0.0242634345
0.0245420335
-0.000133250467
0.0245420335
-0.000133250467
0.999242346
0.785985971
0.999242346
0.785985971
0.784879242
0.592149129
0.784879242
0.592149129
0.591723752
0.430918781
0.591723752
0.430918781
0.430986344
0.304475768
0.430986344
0.304475768
0.304799041
0.209389313
0.304799041
0.209389313
0.209799344
0.139830705
0.209799344
0.139830705
0.140234664
0.089526209
0.140234664
0.089526209
0.0898865309
0.0526844915
0.0898865309
0.0526844915
0.0529970853
0.0242634345
0.0529970853
0.0242634345
0.0245420335
-0.000133250467
0.0245420335
-0.000133250467
</DataArray>
<DataArray type="Float64" Name="time_integrated_heat_flux" NumberOfComponents="2" ComponentName0="0" ComponentName1="1" format="ascii" >
0.324857282 0 
0.235595867 0 
0.324857282 7.13690545e-17 
0.235595867 -3.28290431e-17 
0.235595867 0 
0.166744448 0 
0.235595867 2.40550327e-17 
0.166744448 5.55435788e-17 
0.166744448 0 
0.115612321 0 
0.166744448 -9.70404713e-17 
0.115612321 4.75074359e-17 
0.115612321 0 
0.0788392158 0 
0.115612321 -8.34973999e-17 
0.0788392158 4.50359699e-17 
0.0788392158 0 
0.0531297981 0 
0.0788392158 -3.36423766e-17 
0.0531297981 -1.5306096e-18 
0.0531297981 0 
0.0356482956 0 
0.0531297981 -1.832309e-17 
0.0356482956 3.02102043e-17 
0.0356482956 0 
0.0241602519 0 
0.0356482956 -2.30980834e-17 
0.0241602519 1.45655226e-18 
0.0241602519 0 
0.0170317008 0 
0.0241602519 -2.93211912e-19 
0.0170317008 -3.30239873e-18 
0.0170317008 0 
0.0131686748 0 
0.0170317008 1.10189821e-17 
0.0131686748 -8.43696893e-18 
0.0131686748 0 
0.0119482357 0 
0.0131686748 7.65167389e-20 
0.0119482357 -1.48698848e-18 
0.324857282 7.13690545e-17 
0.235595867 -3.28290431e-17 
0.324857282 1.23052095e-16 
0.235595867 -1.11655356e-16 
0.235595867 2.40550327e-17 
0.166744448 5.55435788e-17 
0.235595867 3.29059032e-17 
0.166744448 1.43274685e-17 
0.166744448 -9.70404713e-17 
0.115612321 4.75074359e-17 
0.166744448 1.45539982e-17 
0.115612321 -3.95028736e-17 
0.115612321 -8.34973999e-17 
0.0788392158 4.50359699e-17 
0.115612321 2.91183395e-17 
0.0788392158 -4.03966171e-17 
0.0788392158 -3.36423766e-17 
0.0531297981 -1.5306096e-18 
0.0788392158 -4.25954492e-17 
0.0531297981 1.73461183e-18 
0.0531297981 -1.832309e-17 
0.0356482956 3.02102043e-17 
0.0531297981 -2.78026698e-17 
0.0356482956 3.27324223e-17 
0.0356482956 -2.30980834e-17 
0.0241602519 1.45655226e-18 
0.0356482956 -1.40730169e-17 
0.0241602519 -2.54839138e-19 
0.0241602519 -2.93211912e-19 
0.0170317008 -3.30239873e-18 
0.0241602519 7.8129303e-18 
0.0170317008 -3.33880477e-18 
0.0170317008 1.10189821e-17 
0.0131686748 -8.43696893e-18 
0.0170317008 7.17185518e-19 
0.0131686748 2.82586716e-18 
0.0131686748 7.65167389e-20 
0.0119482357 -1.48698848e-18 
0.0131686748 -2.42170986e-19 
0.0119482357 1.34414125e-18 
0.324857282 1.23052095e-16 
0.235595867 -1.11655356e-16 
0.324857282 -3.32989696e-17 
0.235595867 -9.25011881e-17 
0.235595867 3.29059032e-17 
0.166744448 1.43274685e-17 
0.235595867 3.07766006e-17 
0.166744448 -4.02903045e-17 
0.166744448 1.45539982e-17 
0.115612321 -3.95028736e-17 
0.166744448 -6.36289166e-18 
0.115612321 -4.52140185e-17 
0.115612321 2.91183395e-17 
0.0788392158 -4.03966171e-17 
0.115612321 8.5265696e-17 
0.0788392158 -6.76735288e-17 
0.0788392158 -4.25954492e-17 
0.0531297981 1.73461183e-18 