<VTKFile type="UnstructuredGrid" version="2.2" byte_order="LittleEndian">
<UnstructuredGrid>
<Piece NumberOfPoints="400" NumberOfCells="100">
<Points>
<DataArray type="Float64" NumberOfComponents="3" format="ascii">
0 0 0
0.1 0 0
0 0.1 0
0.1 0.1 0
0.1 0 0
0.2 0 0
0.1 0.1 0
0.2 0.1 0
0.2 0 0
0.3 0 0
0.2 0.1 0
0.3 0.1 0
0.3 0 0
0.4 0 0
0.3 0.1 0
0.4 0.1 0
0.4 0 0
0.5 0 0
0.4 0.1 0
0.5 0.1 0
0.5 0 0
0.6 0 0
0.5 0.1 0
0.6 0.1 0
0.6 0 0
0.7 0 0
0.6 0.1 0
0.7 0.1 0
0.7 0 0
0.8 0 0
0.7 0.1 0
0.8 0.1 0
0.8 0 0
0.9 0 0
0.8 0.1 0
0.9 0.1 0
0.9 0 0
1 0 0
0.9 0.1 0
1 0.1 0
0 0.1 0
0.1 0.1 0
0 0.2 0
0.1 0.2 0
0.1 0.1 0
0.2 0.1 0
0.1 0.2 0
0.2 0.2 0
0.2 0.1 0
0.3 0.1 0
0.2 0.2 0
0.3 0.2 0
0.3 0.1 0
0.4 0.1 0
0.3 0.2 0
0.4 0.2 0
0.4 0.1 0
0.5 0.1 0
0.4 0.2 0
0.5 0.2 0
0.5 0.1 0
0.6 0.1 0
0.5 0.2 0
0.6 0.2 0
0.6 0.1 0
0.7 0.1 0
0.6 0.2 0
0.7 0.2 0
0.7 0.1 0
0.8 0.1 0
0.7 0.2 0
0.8 0.2 0
0.8 0.1 0
0.9 0.1 0
0.8 0.2 0
0.9 0.2 0
0.9 0.1 0
1 0.1 0
0.9 0.2 0
1 0.2 0
0 0.2 0
0.1 0.2 0
0 0.3 0
0.1 0.3 0
0.1 0.2 0
0.2 0.2 0
0.1 0.3 0
0.2 0.3 0
0.2 0.2 0
0.3 0.2 0
0.2 0.3 0
0.3 0.3 0
0.3 0.2 0
0.4 0.2 0
0.3 0.3 0
0.4 0.3 0
0.4 0.2 0
0.5 0.2 0
0.4 0.3 0
0.5 0.3 0
0.5 0.2 0
0.6 0.2 0
0.5 0.3 0
0.6 0.3 0
0.6 0.2 0
0.7 0.2 0
0.6 0.3 0
0.7 0.3 0
0.7 0.2 0
0.8 0.2 0
0.7 0.3 0
0.8 0.3 0
0.8 0.2 0
0.9 0.2 0
0.8 0.3 0
0.9 0.3 0
0.9 0.2 0
1 0.2 0
0.9 0.3 0
1 0.3 0
0 0.3 0
0.1 0.3 0
0 0.4 0
0.1 0.4 0
0.1 0.3 0
0.2 0.3 0
0.1 0.4 0
0.2 0.4 0
0.2 0.3 0
0.3 0.3 0
0.2 0.4 0
0.3 0.4 0
0.3 0.3 0
0.4 0.3 0
0.3 0.4 0
0.4 0.4 0
0.4 0.3 0
0.5 0.3 0
0.4 0.4 0
0.5 0.4 0
0.5 0.3 0
0.6 0.3 0
0.5 0.4 0
0.6 0.4 0
0.6 0.3 0
0.7 0.3 0
0.6 0.4 0
0.7 0.4 0
0.7 0.3 0
0.8 0.3 0
0.7 0.4 0
0.8 0.4 0
0.8 0.3 0
0.9 0.3 0
0.8 0.4 0
0.9 0.4 0
0.9 0.3 0
1 0.3 0
0.9 0.4 0
1 0.4 0
0 0.4 0
0.1 0.4 0
0 0.5 0
0.1 0.5 0
0.1 0.4 0
0.2 0.4 0
0.1 0.5 0
0.2 0.5 0
0.2 0.4 0
0.3 0.4 0
0.2 0.5 0
0.3 0.5 0
0.3 0.4 0
0.4 0.4 0
0.3 0.5 0
0.4 0.5 0
0.4 0.4 0
0.5 0.4 0
0.4 0.5 0
0.5 0.5 0
0.5 0.4 0
0.6 0.4 0
0.5 0.5 0
0.6 0.5 0
0.6 0.4 0
0.7 0.4 0
0.6 0.5 0
0.7 0.5 0
0.7 0.4 0
0.8 0.4 0
0.7 0.5 0
0.8 0.5 0
0.8 0.4 0
0.9 0.4 0
0.8 0.5 0
0.9 0.5 0
0.9 0.4 0
1 0.4 0
0.9 0.5 0
1 0.5 0
0 0.5 0
0.1 0.5 0
0 0.6 0
0.1 0.6 0
0.1 0.5 0
0.2 0.5 0
0.1 0.6 0
0.2 0.6 0
0.2 0.5 0
0.3 0.5 0
0.2 0.6 0
0.3 0.6 0
0.3 0.5 0
0.4 0.5 0
0.3 0.6 0
0.4 0.6 0
0.4 0.5 0
0.5 0.5 0
0.4 0.6 0
0.5 0.6 0
0.5 0.5 0
0.6 0.5 0
0.5 0.6 0
0.6 0.6 0
0.6 0.5 0
0.7 0.5 0
0.6 0.6 0
0.7 0.6 0
0.7 0.5 0
0.8 0.5 0
0.7 0.6 0
0.8 0.6 0
0.8 0.5 0
0.9 0.5 0
0.8 0.6 0
0.9 0.6 0
0.9 0.5 0
1 0.5 0
0.9 0.6 0
1 0.6 0
0 0.6 0
0.1 0.6 0
0 0.7 0
0.1 0.7 0
0.1 0.6 0
0.2 0.6 0
0.1 0.7 0
0.2 0.7 0
0.2 0.6 0
0.3 0.6 0
0.2 0.7 0
0.3 0.7 0
0.3 0.6 0
0.4 0.6 0
0.3 0.7 0
0.4 0.7 0
0.4 0.6 0
0.5 0.6 0
0.4 0.7 0
0.5 0.7 0
0.5 0.6 0
0.6 0.6 0
0.5 0.7 0
0.6 0.7 0
0.6 0.6 0
0.7 0.6 0
0.6 0.7 0
0.7 0.7 0
0.7 0.6 0
0.8 0.6 0
0.7 0.7 0
0.8 0.7 0
0.8 0.6 0
0.9 0.6 0
0.8 0.7 0
0.9 0.7 0
0.9 0.6 0
1 0.6 0
0.9 0.7 0
1 0.7 0
0 0.7 0
0.1 0.7 0
0 0.8 0
0.1 0.8 0
0.1 0.7 0
0.2 0.7 0
0.1 0.8 0
0.2 0.8 0
0.2 0.7 0
0.3 0.7 0
0.2 0.8 0
0.3 0.8 0
0.3 0.7 0
0.4 0.7 0
0.3 0.8 0
0.4 0.8 0
0.4 0.7 0
0.5 0.7 0
0.4 0.8 0
0.5 0.8 0
0.5 0.7 0
0.6 0.7 0
0.5 0.8 0
0.6 0.8 0
0.6 0.7 0
0.7 0.7 0
0.6 0.8 0
0.7 0.8 0
0.7 0.7 0
0.8 0.7 0
0.7 0.8 0
0.8 0.8 0
0.8 0.7 0
0.9 0.7 0
0.8 0.8 0
0.9 0.8 0
0.9 0.7 0
1 0.7 0
0.9 0.8 0
1 0.8 0
0 0.8 0
0.1 0.8 0
0 0.9 0
0.1 0.9 0
0.1 0.8 0
0.2 0.8 0
0.1 0.9 0
0.2 0.9 0
0.2 0.8 0
0.3 0.8 0
0.2 0.9 0
0.3 0.9 0
0.3 0.8 0
0.4 0.8 0
0.3 0.9 0
0.4 0.9 0
0.4 0.8 0
0.5 0.8 0
0.4 0.9 0
0.5 0.9 0
0.5 0.8 0
0.6 0.8 0
0.5 0.9 0
0.6 0.9 0
0.6 0.8 0
0.7 0.8 0
0.6 0.9 0
0.7 0.9 0
0.7 0.8 0
0.8 0.8 0
0.7 0.9 0
0.8 0.9 0
0.8 0.8 0
0.9 0.8 0
0.8 0.9 0
0.9 0.9 0
0.9 0.8 0
1 0.8 0
0.9 0.9 0
1 0.9 0
0 0.9 0
0.1 0.9 0
0 1 0
0.1 1 0
0.1 0.9 0
0.2 0.9 0
0.1 1 0
0.2 1 0
0.2 0.9 0
0.3 0.9 0
0.2 1 0
0.3 1 0
0.3 0.9 0
0.4 0.9 0
0.3 1 0
0.4 1 0
0.4 0.9 0
0.5 0.9 0
0.4 1 0
0.5 1 0
0.5 0.9 0
0.6 0.9 0
0.5 1 0
0.6 1 0
0.6 0.9 0
0.7 0.9 0
0.6 1 0
0.7 1 0
0.7 0.9 0
0.8 0.9 0
0.7 1 0
0.8 1 0
0.8 0.9 0
0.9 0.9 0
0.8 1 0
0.9 1 0
0.9 0.9 0
1 0.9 0
0.9 1 0
1 1 0
</DataArray>
</Points>
<Cells>
<DataArray type="Int32" Name="connectivity" format="ascii">
0 1 3 2 
4 5 7 6 
8 9 11 10 
12 13 15 14 
16 17 19 18 
20 21 23 22 
24 25 27 26 
28 29 31 30 
32 33 35 34 
36 37 39 38 
40 41 43 42 
44 45 47 46 
48 49 51 50 
52 53 55 54 
56 57 59 58 
60 61 63 62 
64 65 67 66 
68 69 71 70 
72 73 75 74 
76 77 79 78 
80 81 83 82 
84 85 87 86 
88 89 91 90 
92 93 95 94 
96 97 99 98 
100 101 103 102 
104 105 107 106 
108 109 111 110 
112 113 115 114 
116 117 119 118 
120 121 123 122 
124 125 127 126 
128 129 131 130 
132 133 135 134 
136 137 139 138 
140 141 143 142 
144 145 147 146 
148 149 151 150 
152 153 155 154 
156 157 159 158 
160 161 163 162 
164 165 167 166 
168 169 171 170 
172 173 175 174 
176 177 179 178 
180 181 183 182 
184 185 187 186 
188 189 191 190 
192 193 195 194 
196 197 199 198 
200 201 203 202 
204 205 207 206 
208 209 211 210 
212 213 215 214 
216 217 219 218 
220 221 223 222 
224 225 227 226 
228 229 231 230 
232 233 235 234 
236 237 239 238 
240 241 243 242 
244 245 247 246 
248 249 251 250 
252 253 255 254 
256 257 259 258 
260 261 263 262 
264 265 267 266 
268 269 271 270 
272 273 275 274 
276 277 279 278 
280 281 283 282 
284 285 287 286 
288 289 291 290 
292 293 295 294 
296 297 299 298 
300 301 303 302 
304 305 307 306 
308 309 311 310 
312 313 315 314 
316 317 319 318 
320 321 323 322 
324 325 327 326 
328 329 331 330 
332 333 335 334 
336 337 339 338 
340 341 343 342 
344 345 347 346 
348 349 351 350 
352 353 355 354 
356 357 359 358 
360 361 363 362 
364 365 367 366 
368 369 371 370 
372 373 375 374 
376 377 379 378 
380 381 383 382 
384 385 387 386 
388 389 391 390 
392 393 395 394 
396 397 399 398 
</DataArray>
<DataArray type="Int32" Name="offsets" format="ascii">
4
8
12
16
20
24
28
32
36
40
44
48
52
56
60
64
68
72
76
80
84
88
92
96
100
104
108
112
116
120
124
128
132
136
140
144
148
152
156
160
164
168
172
176
180
184
188
192
196
200
204
208
212
216
220
224
228
232
236
240
244
248
252
256
260
264
268
272
276
280
284
288
292
296
300
304
308
312
316
320
324
328
332
336
340
344
348
352
356
360
364
368
372
376
380
384
388
392
396
400
</DataArray>
<DataArray type="UInt8" Name="types" format="ascii">
9
9
9
9
9
9
9
9
9
9
9
9
9
9
9
9
9
9
9
9
9
9
9
9
9
9
9
9
9
9
9
9
9
9
9
9
9
9
9
9
9
9
9
9
9
9
9
9
9
9
9
9
9
9
9
9
9
9
9
9
9
9
9
9
9
9
9
9
9
9
9
9
9
9
9
9
9
9
9
9
9
9
9
9
9
9
9
9
9
9
9
9
9
9
9
9
9
9
9
9
</DataArray>
</Cells>
<CellData Scalars="attribute">
<DataArray type="Int32" Name="attribute" format="ascii">
1
1
1
1
1
1
1
1
1
1
1
1
1
1
1
1
1
1
1
1
1
1
1
1
1
1
1
1
1
1
1
1
1
1
1
1
1
1
1
1
1
1
1
1
1
1
1
1
1
1
1
1
1
1
1
1
1
1
1
1
1
1
1
1
1
1
1
1
1
1
1
1
1
1
1
1
1
1
1
1
1
1
1
1
1
1
1
1
1
1
1
1
1
1
1
1
1
1
1
1
</DataArray>
</CellData>
<PointData >
<DataArray type="Float64" Name="div_heat_flux" NumberOfComponents="1"  format="ascii" >
-0.383019926
-0.383019926
-0.383019926
-0.383019926
-1.02145075
-1.02145075
-1.02145075
-1.02145075
-1.4816214
-1.4816214
-1.4816214
-1.4816214
-1.74448177
-1.74448177
-1.74448177
-1.74448177
-1.81698953
-1.81698953
-1.81698953
-1.81698953
-1.72047442
-1.72047442
-1.72047442
-1.72047442
-1.4833665
-1.4833665
-1.4833665
-1.4833665
-1.13691306
-1.13691306
-1.13691306
-1.13691306
-0.712908015
-0.712908015
-0.712908015
-0.712908015
-0.242740078
-0.242740078
-0.242740078
-0.242740078
-0.383019926
-0.383019926
-0.383019926
-0.383019926
-1.02145075
-1.02145075
-1.02145075
-1.02145075
-1.4816214
-1.4816214
-1.4816214
-1.4816214
-1.74448177
-1.74448177
-1.74448177
-1.74448177
-1.81698953
-1.81698953
-1.81698953
-1.81698953
-1.72047442
-1.72047442
-1.72047442
-1.72047442
-1.4833665
-1.4833665
-1.4833665
-1.4833665
-1.13691306
-1.13691306
-1.13691306
-1.13691306
-0.712908015
-0.712908015
-0.712908015
-0.712908015
-0.242740078
-0.242740078
-0.242740078
-0.242740078
-0.383019926
-0.383019926
-0.383019926
-0.383019926
-1.02145075
-1.02145075
-1.02145075
-1.02145075
-1.4816214
-1.4816214
-1.4816214
-1.4816214
-1.74448177
-1.74448177
-1.74448177
-1.74448177
-1.81698953
-1.81698953
-1.81698953
-1.81698953
-1.72047442
-1.72047442
-1.72047442
-1.72047442
-1.4833665
-1.4833665
-1.4833665
-1.4833665
-1.13691306
-1.13691306
-1.13691306
-1.13691306
-0.712908015
-0.712908015
-0.712908015
-0.712908015
-0.242740078
-0.242740078
-0.242740078
-0.242740078
-0.383019926
-0.383019926
-0.383019926
-0.383019926
-1.02145075
-1.02145075
-1.02145075
-1.02145075
-1.4816214
-1.4816214
-1.4816214
-1.4816214
-1.74448177
-1.74448177
-1.74448177
-1.74448177
-1.81698953
-1.81698953
-1.81698953
-1.81698953
-1.72047442
-1.72047442
-1.72047442
-1.72047442
-1.4833665
-1.4833665
-1.4833665
-1.4833665
-1.13691306
-1.13691306
-1.13691306
-1.13691306
-0.712908015
-0.712908015
-0.712908015
-0.712908015
-0.242740078
-0.242740078
-0.242740078
-0.242740078
-0.383019926
-0.383019926
-0.383019926
-0.383019926
-1.02145075
-1.02145075
-1.02145075
-1.02145075
-1.4816214
-1.4816214
-1.4816214
-1.4816214
-1.74448177
-1.74448177
-1.74448177
-1.74448177
-1.81698953
-1.81698953
-1.81698953
-1.81698953
-1.72047442
-1.72047442
-1.72047442
-1.72047442
-1.4833665
-1.4833665
-1.4833665
-1.4833665
-1.13691306
-1.13691306
-1.13691306
-1.13691306
-0.712908015
-0.712908015
-0.712908015
-0.712908015
-0.242740078
-0.242740078
-0.242740078
-0.242740078
-0.383019926
-0.383019926
-0.383019926
-0.383019926
-1.02145075
-1.02145075
-1.02145075
-1.02145075
-1.4816214
-1.4816214
-1.4816214
-1.4816214
-1.74448177
-1.74448177
-1.74448177
-1.74448177
-1.81698953
-1.81698953
-1.81698953
-1.81698953
-1.72047442
-1.72047442
-1.72047442
-1.72047442
-1.4833665
-1.4833665
-1.4833665
-1.4833665
-1.13691306
-1.13691306
-1.13691306
-1.13691306
-0.712908015
-0.712908015
-0.712908015
-0.712908015
-0.242740078
-0.242740078
-0.242740078
-0.242740078
-0.383019926
-0.383019926
-0.383019926
-0.383019926
-1.02145075
-1.02145075
-1.02145075
-1.02145075
-1.4816214
-1.4816214
-1.4816214
-1.4816214
-1.74448177
-1.74448177
-1.74448177
-1.74448177
-1.81698953
-1.81698953
-1.81698953
-1.81698953
-1.72047442
-1.72047442
-1.72047442
-1.72047442
-1.4833665
-1.4833665
-1.4833665
-1.4833665
-1.13691306
-1.13691306
-1.13691306
-1.13691306
-0.712908015
-0.712908015
-0.712908015
-0.712908015
-0.242740078
-0.242740078
-0.242740078
-0.242740078
-0.383019926
-0.383019926
-0.383019926
-0.383019926
-1.02145075
-1.02145075
-1.02145075
-1.02145075
-1.4816214
-1.4816214
-1.4816214
-1.4816214
-1.74448177
-1.74448177
-1.74448177
-1.74448177
-1.81698953
-1.81698953
-1.81698953
-1.81698953
-1.72047442
-1.72047442
-1.72047442
-1.72047442
-1.4833665
-1.4833665
-1.4833665
-1.4833665
-1.13691306
-1.13691306
-1.13691306
-1.13691306
-0.712908015
-0.712908015
-0.712908015
-0.712908015
-0.242740078
-0.242740078
-0.242740078
-0.242740078
-0.383019926
-0.383019926
-0.383019926
-0.383019926
-1.02145075
-1.02145075
-1.02145075
-1.02145075
-1.4816214
-1.4816214
-1.4816214
-1.4816214
-1.74448177
-1.74448177
-1.74448177
-1.74448177
-1.81698953
-1.81698953
-1.81698953
-1.81698953
-1.72047442
-1.72047442
-1.72047442
-1.72047442
-1.4833665
-1.4833665
-1.4833665
-1.4833665
-1.13691306
-1.13691306
-1.13691306
-1.13691306
-0.712908015
-0.712908015
-0.712908015
-0.712908015
-0.242740078
-0.242740078
-0.242740078
-0.242740078
-0.383019926
-0.383019926
-0.383019926
-0.383019926
-1.02145075
-1.02145075
-1.02145075
-1.02145075
-1.4816214
-1.4816214
-1.4816214
-1.4816214
-1.74448177
-1.74448177
-1.74448177
-1.74448177
-1.81698953
-1.81698953
-1.81698953
-1.81698953
-1.72047442
-1.72047442
-1.72047442
-1.72047442
-1.4833665
-1.4833665
-1.4833665
-1.4833665
-1.13691306
-1.13691306
-1.13691306
-1.13691306
-0.712908015
-0.712908015
-0.712908015
-0.712908015
-0.242740078
-0.242740078
-0.242740078
-0.242740078
</DataArray>
<DataArray type="Float64" Name="dtemperature_dt" NumberOfComponents="1"  format="ascii" >
0.383019926
0.383019926
0.383019926
0.383019926
1.02145075
1.02145075
1.02145075
1.02145075
1.4816214
1.4816214
1.4816214
1.4816214
1.74448177
1.74448177
1.74448177
1.74448177
1.81698953
1.81698953
1.81698953
1.81698953
1.72047442
1.72047442
1.72047442
1.72047442
1.4833665
1.4833665
1.4833665
1.4833665
1.13691306
1.13691306
1.13691306
1.13691306
0.712908015
0.712908015
0.712908015
0.712908015
0.242740078
0.242740078
0.242740078
0.242740078
0.383019926
0.383019926
0.383019926
0.383019926
1.02145075
1.02145075
1.02145075
1.02145075
1.4816214
1.4816214
1.4816214
1.4816214
1.74448177
1.74448177
1.74448177
1.74448177
1.81698953
1.81698953
1.81698953
1.81698953
1.72047442
1.72047442
1.72047442
1.72047442
1.4833665
1.4833665
1.4833665
1.4833665
1.13691306
1.13691306
1.13691306
1.13691306
0.712908015
0.712908015
0.712908015
0.712908015
0.242740078
0.242740078
0.242740078
0.242740078
0.383019926
0.383019926
0.383019926
0.383019926
1.02145075
1.02145075
1.02145075
1.02145075
1.4816214
1.4816214
1.4816214
1.4816214
1.74448177
1.74448177
1.74448177
1.74448177
1.81698953
1.81698953
1.81698953
1.81698953
1.72047442
1.72047442
1.72047442
1.72047442
1.4833665
1.4833665
1.4833665
1.4833665
1.13691306
1.13691306
1.13691306
1.13691306
0.712908015
0.712908015
0.712908015
0.712908015
0.242740078
0.242740078
0.242740078
0.242740078
0.383019926
0.383019926
0.383019926
0.383019926
1.02145075
1.02145075
1.02145075
1.02145075
1.4816214
1.4816214
1.4816214
1.4816214
1.74448177
1.74448177
1.74448177
1.74448177
1.81698953
1.81698953
1.81698953
1.81698953
1.72047442
1.72047442
1.72047442
1.72047442
1.4833665
1.4833665
1.4833665
1.4833665
1.13691306
1.13691306
1.13691306
1.13691306
0.712908015
0.712908015
0.712908015
0.712908015
0.242740078
0.242740078
0.242740078
0.242740078
0.383019926
0.383019926
0.383019926
0.383019926
1.02145075
1.02145075
1.02145075
1.02145075
1.4816214
1.4816214
1.4816214
1.4816214
1.74448177
1.74448177
1.74448177
1.74448177
1.81698953
1.81698953
1.81698953
1.81698953
1.72047442
1.72047442
1.72047442
1.72047442
1.4833665
1.4833665
1.4833665
1.4833665
1.13691306
1.13691306
1.13691306
1.13691306
0.712908015
0.712908015
0.712908015
0.712908015
0.242740078
0.242740078
0.242740078
0.242740078
0.383019926
0.383019926
0.383019926
0.383019926
1.02145075
1.02145075
1.02145075
1.02145075
1.4816214
1.4816214
1.4816214
1.4816214
1.74448177
1.74448177
1.74448177
1.74448177
1.81698953
1.81698953
1.81698953
1.81698953
1.72047442
1.72047442
1.72047442
1.72047442
1.4833665
1.4833665
1.4833665
1.4833665
1.13691306
1.13691306
1.13691306
1.13691306
0.712908015
0.712908015
0.712908015
0.712908015
0.242740078
0.242740078
0.242740078
0.242740078
0.383019926
0.383019926
0.383019926
0.383019926
1.02145075
1.02145075
1.02145075
1.02145075
1.4816214
1.4816214
1.4816214
1.4816214
1.74448177
1.74448177
1.74448177
1.74448177
1.81698953
1.81698953
1.81698953
1.81698953
1.72047442
1.72047442
1.72047442
1.72047442
1.4833665
1.4833665
1.4833665
1.4833665
1.13691306
1.13691306
1.13691306
1.13691306
0.712908015
0.712908015
0.712908015
0.712908015
0.242740078
0.242740078
0.242740078
0.242740078
0.383019926
0.383019926
0.383019926
0.383019926
1.02145075
1.02145075
1.02145075
1.02145075
1.4816214
1.4816214
1.4816214
1.4816214
1.74448177
1.74448177
1.74448177
1.74448177
1.81698953
1.81698953
1.81698953
1.81698953
1.72047442
1.72047442
1.72047442
1.72047442
1.4833665
1.4833665
1.4833665
1.4833665
1.13691306
1.13691306
1.13691306
1.13691306
0.712908015
0.712908015
0.712908015
0.712908015
0.242740078
0.242740078
0.242740078
0.242740078
0.383019926
0.383019926
0.383019926
0.383019926
1.02145075
1.02145075
1.02145075
1.02145075
1.4816214
1.4816214
1.4816214
1.4816214
1.74448177
1.74448177
1.74448177
1.74448177
1.81698953
1.81698953
1.81698953
1.81698953
1.72047442
1.72047442
1.72047442
1.72047442
1.4833665
1.4833665
1.4833665
1.4833665
1.13691306
1.13691306
1.13691306
1.13691306
0.712908015
0.712908015
0.712908015
0.712908015
0.242740078
0.242740078
0.242740078
0.242740078
0.383019926
0.383019926
0.383019926
0.383019926
1.02145075
1.02145075
1.02145075
1.02145075
1.4816214
1.4816214
1.4816214
1.4816214
1.74448177
1.74448177
1.74448177
1.74448177
1.81698953
1.81698953
1.81698953
1.81698953
1.72047442
1.72047442
1.72047442
1.72047442
1.4833665
1.4833665
1.4833665
1.4833665
1.13691306
1.13691306
1.13691306
1.13691306
0.712908015
0.712908015
0.712908015
0.712908015
0.242740078
0.242740078
0.242740078
0.242740078
</DataArray>
<DataArray type="Float64" Name="heat_flux" NumberOfComponents="2" ComponentName0="0" ComponentName1="1" format="ascii" >
6.61732687 0 
6.57902488 0 
6.61732687 3.36634603e-16 
6.57902488 3.10980154e-16 
6.57902488 0 
6.47687981 0 
6.57902488 -3.08717653e-16 
6.47687981 -3.7793191e-17 
6.47687981 0 
6.32871767 0 
6.47687981 -5.62975913e-16 
6.32871767 -4.50395443e-17 
6.32871767 0 
6.15426949 0 
6.32871767 -2.93343934e-16 
6.15426949 -1.08128436e-15 
6.15426949 0 
5.97257054 0 
6.15426949 9.90226488e-18 
5.97257054 -1.74366371e-16 
5.97257054 0 
5.80052309 0 
5.97257054 -1.43207931e-15 
5.80052309 6.51841928e-16 
5.80052309 0 
5.65218645 0 
5.80052309 9.04620295e-16 
5.65218645 -4.06330916e-16 
5.65218645 0 
5.53849514 0 
5.65218645 -2.87292355e-16 
5.53849514 6.05592052e-16 
5.53849514 0 
5.46720434 0 
5.53849514 1.5432277e-16 
5.46720434 -6.52504943e-16 
5.46720434 0 
5.44293033 0 
5.46720434 -1.53489895e-16 
5.44293033 1.03283652e-15 
6.61732687 3.36634603e-16 
6.57902488 3.10980154e-16 
6.61732687 -1.36616626e-16 
6.57902488 -1.45455869e-16 
6.57902488 -3.08717653e-16 
6.47687981 -3.7793191e-17 
6.57902488 -6.64773738e-18 
6.47687981 3.44674279e-16 
6.47687981 -5.62975913e-16 
6.32871767 -4.50395443e-17 
6.47687981 -3.86967344e-16 
6.32871767 2.04810431e-16 
6.32871767 -2.93343934e-16 
6.15426949 -1.08128436e-15 
6.32871767 -7.07208127e-17 
6.15426949 -9.21410033e-16 
6.15426949 9.90226488e-18 
5.97257054 -1.74366371e-16 
6.15426949 -2.81090914e-16 
5.97257054 -7.22916323e-16 
5.97257054 -1.43207931e-15 
5.80052309 6.51841928e-16 
5.97257054 -2.24541334e-15 
5.80052309 -2.51861359e-16 
5.80052309 9.04620295e-16 
5.65218645 -4.06330916e-16 
5.80052309 1.21809098e-15 
5.65218645 -3.83216421e-16 
5.65218645 -2.87292355e-16 
5.53849514 6.05592052e-16 
5.65218645 1.1334202e-16 
5.53849514 1.11294716e-15 
5.53849514 1.5432277e-16 
5.46720434 -6.52504943e-16 
5.53849514 1.81093052e-16 
5.46720434 -6.70350976e-16 
5.46720434 -1.53489895e-16 
5.44293033 1.03283652e-15 
5.46720434 6.11359099e-17 
5.44293033 1.44653566e-15 
6.61732687 -1.36616626e-16 
6.57902488 -1.45455869e-16 
6.61732687 4.48461262e-16 
6.57902488 3.38476383e-16 
6.57902488 -6.64773738e-18 
6.47687981 3.44674279e-16 
6.57902488 -2.69550634e-16 
6.47687981 2.06590684e-18 
6.47687981 -3.86967344e-16 
6.32871767 2.04810431e-16 
6.47687981 -1.01459286e-15 
6.32871767 -1.9799712e-16 
6.32871767 -7.07208127e-17 
6.15426949 -9.21410033e-16 
6.32871767 -1.22907136e-16 
6.15426949 -5.94342902e-16 
6.15426949 -2.81090914e-16 
5.97257054 -7.22916323e-16 
6.15426949 2.15568231e-17 
5.97257054 -5.63889892e-16 
5.97257054 -2.24541334e-15 
5.80052309 -2.51861359e-16 
5.97257054 -1.88156834e-15 
5.80052309 2.59117161e-16 
5.80052309 1.21809098e-15 
5.65218645 -3.83216421e-16 
5.80052309 1.70986285e-15 
5.65218645 -1.45833384e-16 
5.65218645 1.1334202e-16 
5.53849514 1.11294716e-15 
5.65218645 4.95949861e-16 
5.53849514 1.16900829e-15 
5.53849514 1.81093052e-16 
5.46720434 -6.70350976e-16 
5.53849514 -9.80367356e-17 
5.46720434 -9.66802265e-16 
5.46720434 6.11359099e-17 
5.44293033 1.44653566e-15 
5.46720434 6.2785905e-17 
5.44293033 1.46416248e-15 
6.61732687 4.48461262e-16 
6.57902488 3.38476383e-16 
6.61732687 -2.77662655e-16 
6.57902488 -3.12459184e-16 
6.57902488 -2.69550634e-16 
6.47687981 2.06590684e-18 
6.57902488 -7.31290611e-16 
6.47687981 -3.71701421e-16 
6.47687981 -1.01459286e-15 
6.32871767 -1.9799712e-16 
6.47687981 2.79598649e-17 
6.32871767 1.11770051e-15 
6.32871767 -1.22907136e-16 
6.15426949 -5.94342902e-16 
6.32871767 1.96340433e-16 
6.15426949 -1.62500663e-16 
6.15426949 2.15568231e-17 
5.97257054 -5.63889892e-16 
6.15426949 -1.90307058e-16 
5.97257054 -6.78376014e-16 
5.97257054 -1.88156834e-15 
5.80052309 2.59117161e-16 
5.97257054 -1.84111e-15 
5.80052309 -1.15870246e-16 
5.80052309 1.70986285e-15 
5.65218645 -1.45833384e-16 
5.80052309 1.22203125e-15 
5.65218645 -6.81076785e-16 
5.65218645 4.95949861e-16 
5.53849514 1.16900829e-15 
5.65218645 -1.61204787e-16 
5.53849514 7.36750899e-16 
5.53849514 -9.80367356e-17 
5.46720434 -9.66802265e-16 
5.53849514 4.49881775e-16 
5.46720434 -6.70778385e-16 
5.46720434 6.2785905e-17 
5.44293033 1.46416248e-15 
5.46720434 -2.7054319e-16 
5.44293033 1.21403496e-15 
6.61732687 -2.77662655e-16 
6.57902488 -3.12459184e-16 
6.61732687 -2.97616574e-16 
6.57902488 -1.94711459e-16 
6.57902488 -7.31290611e-16 
6.47687981 -3.71701421e-16 
6.57902488 -9.18548846e-17 
6.47687981 1.85424053e-16 
6.47687981 2.79598649e-17 
6.32871767 1.11770051e-15 
6.47687981 1.15772405e-16 
6.32871767 9.27410524e-16 
6.32871767 1.96340433e-16 
6.15426949 -1.62500663e-16 
6.32871767 -1.95208825e-16 
6.15426949 1.64282251e-16 
6.15426949 -1.90307058e-16 
5.97257054 -6.78376014e-16 
6.15426949 8.82091237e-16 
5.97257054 1.2885556e-16 
5.97257054 -1.84111e-15 
5.80052309 -1.15870246e-16 
5.97257054 -1.74146576e-15 
5.80052309 1.45744538e-17 
5.80052309 1.22203125e-15 
5.65218645 -6.81076785e-16 
5.80052309 4.35362502e-16 
5.65218645 -1.10518631e-15 
5.65218645 -1.61204787e-16 
5.53849514 7.36750899e-16 
5.65218645 -1.42844537e-16 
5.53849514 9.33828788e-16 
5.53849514 4.49881775e-16 
5.46720434 -6.70778385e-16 
5.53849514 2.81138834e-16 
5.46720434 -9.48576244e-16 
5.46720434 -2.7054319e-16 
5.44293033 1.21403496e-15 
5.46720434 1.54856409e-16 
5.44293033 1.64033412e-15 
6.61732687 -2.97616574e-16 
6.57902488 -1.94711459e-16 
6.61732687 1.74147626e-16 
6.57902488 3.54304355e-16 
6.57902488 -9.18548846e-17 
6.47687981 1.85424053e-16 
6.57902488 -2.4269796e-16 
6.47687981 3.5219189e-16 
6.47687981 1.15772405e-16 
6.32871767 9.27410524e-16 
6.47687981 3.44225948e-16 
6.32871767 1.37815071e-15 
6.32871767 -1.95208825e-16 
6.15426949 1.64282251e-16 
6.32871767 4.71738564e-16 
6.15426949 -6.71233222e-17 
6.15426949 8.82091237e-16 
5.97257054 1.2885556e-16 
6.15426949 -2.31785894e-16 
5.97257054 -3.54896889e-16 
5.97257054 -1.74146576e-15 
5.80052309 1.45744538e-17 
5.97257054 -1.84091074e-15 
5.80052309 1.48240062e-16 
5.80052309 4.35362502e-16 
5.65218645 -1.10518631e-15 
5.80052309 6.78797328e-16 
5.65218645 -8.43556546e-16 
5.65218645 -1.42844537e-16 
5.53849514 9.33828788e-16 
5.65218645 -4.36609614e-17 
5.53849514 1.36902948e-15 
5.53849514 2.81138834e-16 
5.46720434 -9.48576244e-16 
5.53849514 3.10054311e-16 
5.46720434 -1.07597983e-15 
5.46720434 1.54856409e-16 
5.44293033 1.64033412e-15 
5.46720434 2.29348335e-16 
5.44293033 1.68611415e-15 
6.61732687 1.74147626e-16 
6.57902488 3.54304355e-16 
6.61732687 -9.70392142e-17 
6.57902488 9.03609483e-17 
6.57902488 -2.4269796e-16 
6.47687981 3.5219189e-16 
6.57902488 -1.8466804e-16 
6.47687981 3.67062881e-16 
6.47687981 3.44225948e-16 
6.32871767 1.37815071e-15 
6.47687981 -5.93712337e-16 
6.32871767 1.24661504e-15 
6.32871767 4.71738564e-16 
6.15426949 -6.71233222e-17 
6.32871767 9.97803185e-16 
6.15426949 3.25724866e-16 
6.15426949 -2.31785894e-16 
5.97257054 -3.54896889e-16 
6.15426949 -3.1975272e-16 
5.97257054 -1.21569968e-16 
5.97257054 -1.84091074e-15 
5.80052309 1.48240062e-16 
5.97257054 -1.94264177e-15 
5.80052309 6.01547704e-16 
5.80052309 6.78797328e-16 
5.65218645 -8.43556546e-16 
5.80052309 8.50950505e-16 
5.65218645 -8.44258246e-16 
5.65218645 -4.36609614e-17 
5.53849514 1.36902948e-15 
5.65218645 -7.36932879e-16 
5.53849514 4.89478475e-16 
5.53849514 3.10054311e-16 
5.46720434 -1.07597983e-15 
5.53849514 -3.4668996e-16 
5.46720434 -1.25453027e-15 
5.46720434 2.29348335e-16 
5.44293033 1.68611415e-15 
5.46720434 -2.13542026e-16 
5.44293033 1.26961403e-15 
6.61732687 -9.70392142e-17 
6.57902488 9.03609483e-17 
6.61732687 -6.62228249e-16 
6.57902488 -5.53196976e-16 
6.57902488 -1.8466804e-16 
6.47687981 3.67062881e-16 
6.57902488 -6.59350373e-16 
6.47687981 3.77708732e-17 
6.47687981 -5.93712337e-16 
6.32871767 1.24661504e-15 
6.47687981 -5.54796384e-16 
6.32871767 3.72461368e-16 
6.32871767 9.97803185e-16 
6.15426949 3.25724866e-16 
6.32871767 -4.42973369e-16 
6.15426949 -1.0626968e-15 
6.15426949 -3.1975272e-16 
5.97257054 -1.21569968e-16 
6.15426949 6.84295999e-16 
5.97257054 3.76160007e-16 
5.97257054 -1.94264177e-15 
5.80052309 6.01547704e-16 
5.97257054 -1.96096871e-15 
5.80052309 3.02769675e-16 
5.80052309 8.50950505e-16 
5.65218645 -8.44258246e-16 
5.80052309 8.82286962e-16 
5.65218645 -4.85600677e-16 
5.65218645 -7.36932879e-16 
5.53849514 4.89478475e-16 
5.65218645 -5.14949967e-16 
5.53849514 2.75292295e-16 
5.53849514 -3.4668996e-16 
5.46720434 -1.25453027e-15 
5.53849514 9.683441e-17 
5.46720434 -9.06760293e-16 
5.46720434 -2.13542026e-16 
5.44293033 1.26961403e-15 
5.46720434 -4.5453133e-16 
5.44293033 9.69601345e-16 
6.61732687 -6.62228249e-16 
6.57902488 -5.53196976e-16 
6.61732687 1.22947531e-16 
6.57902488 2.05634397e-16 
6.57902488 -6.59350373e-16 
6.47687981 3.77708732e-17 
6.57902488 -4.39829793e-16 
6.47687981 4.18213071e-17 
6.47687981 -5.54796384e-16 
6.32871767 3.72461368e-16 
6.47687981 -6.32878403e-16 
6.32871767 2.7845367e-16 
6.32871767 -4.42973369e-16 
6.15426949 -1.0626968e-15 
6.32871767 6.44847679e-16 
6.15426949 2.71733717e-16 
6.15426949 6.84295999e-16 
5.97257054 3.76160007e-16 
6.15426949 -7.66126706e-16 
5.97257054 -9.27366287e-16 
5.97257054 -1.96096871e-15 
5.80052309 3.02769675e-16 
5.97257054 -1.56749423e-15 
5.80052309 2.18463977e-16 
5.80052309 8.82286962e-16 
5.65218645 -4.85600677e-16 
5.80052309 1.08038098e-15 
5.65218645 -8.47335981e-17 
5.65218645 -5.14949967e-16 
5.53849514 2.75292295e-16 
5.65218645 -4.1673032e-16 
5.53849514 7.06173658e-16 
5.53849514 9.683441e-17 
5.46720434 -9.06760293e-16 
5.53849514 -7.18398423e-17 
5.46720434 -9.93498576e-16 
5.46720434 -4.5453133e-16 
5.44293033 9.69601345e-16 
5.46720434 -3.46929015e-16 
5.44293033 8.97728967e-16 
6.61732687 1.22947531e-16 
6.57902488 2.05634397e-16 
6.61732687 0 
6.57902488 0 
6.57902488 -4.39829793e-16 
6.47687981 4.18213071e-17 
6.57902488 0 
6.47687981 0 
6.47687981 -6.32878403e-16 
6.32871767 2.7845367e-16 
6.47687981 0 
6.32871767 0 
6.32871767 6.44847679e-16 
6.15426949 2.71733717e-16 
6.32871767 0 
6.15426949 0 
6.15426949 -7.66126706e-16 
5.97257054 -9.27366287e-16 
6.15426949 0 
5.97257054 0 
5.97257054 -1.56749423e-15 
5.80052309 2.18463977e-16 
5.97257054 0 
5.80052309 0 
5.80052309 1.08038098e-15 
5.65218645 -8.47335981e-17 
5.80052309 0 
5.65218645 0 
5.65218645 -4.1673032e-16 
5.53849514 7.06173658e-16 
5.65218645 0 
5.53849514 0 
5.53849514 -7.18398423e-17 
5.46720434 -9.93498576e-16 
5.53849514 0 
5.46720434 0 
5.46720434 -3.46929015e-16 
5.44293033 8.97728967e-16 
5.46720434 0 
5.44293033 0 
</DataArray>
<DataArray type="Float64" Name="temperature" NumberOfComponents="1"  format="ascii" >
0.944696018
0.944696018
0.944696018
0.944696018
0.83477959
0.83477959
0.83477959
0.83477959
0.726639856
0.726639856
0.726639856
0.726639856
0.621051703
0.621051703
0.621051703
0.621051703
0.518450333
0.518450333
0.518450333
0.518450333
0.418947705
0.418947705
0.418947705
0.418947705
0.322371115
0.322371115
0.322371115
0.322371115
0.228312364
0.228312364
0.228312364
0.228312364
0.13618078
0.13618078
0.13618078
0.13618078
0.0452566111
0.0452566111
0.0452566111
0.0452566111
0.944696018
0.944696018
0.944696018
0.944696018
0.83477959
0.83477959
0.83477959
0.83477959
0.726639856
0.726639856
0.726639856
0.726639856
0.621051703
0.621051703
0.621051703
0.621051703
0.518450333
0.518450333
0.518450333
0.518450333
0.418947705
0.418947705
0.418947705
0.418947705
0.322371115
0.322371115
0.322371115
0.322371115
0.228312364
0.228312364
0.228312364
0.228312364
0.13618078
0.13618078
0.13618078
0.13618078
0.0452566111
0.0452566111
0.0452566111
0.0452566111
0.944696018
0.944696018
0.944696018
0.944696018
0.83477959
0.83477959
0.83477959
0.83477959
0.726639856
0.726639856
0.726639856
0.726639856
0.621051703
0.621051703
0.621051703
0.621051703
0.518450333
0.518450333
0.518450333
0.518450333
0.418947705
0.418947705
0.418947705
0.418947705
0.322371115
0.322371115
0.322371115
0.322371115
0.228312364
0.228312364
0.228312364
0.228312364
0.13618078
0.13618078
0.13618078
0.13618078
0.0452566111
0.0452566111
0.0452566111
0.0452566111
0.944696018
0.944696018
0.944696018
0.944696018
0.83477959
0.83477959
0.83477959
0.83477959
0.726639856
0.726639856
0.726639856
0.726639856
0.621051703
0.621051703
0.621051703
0.621051703
0.518450333
0.518450333
0.518450333
0.518450333
0.418947705
0.418947705
0.418947705
0.418947705
0.322371115
0.322371115
0.322371115
0.322371115
0.228312364
0.228312364
0.228312364
0.228312364
0.13618078
0.13618078
0.13618078
0.13618078
0.0452566111
0.0452566111
0.0452566111
0.0452566111
0.944696018
0.944696018
0.944696018
0.944696018
0.83477959
0.83477959
0.83477959
0.83477959
0.726639856
0.726639856
0.726639856
0.726639856
0.621051703
0.621051703
0.621051703
0.621051703
0.518450333
0.518450333
0.518450333
0.518450333
0.418947705
0.418947705
0.418947705
0.418947705
0.322371115
0.322371115
0.322371115
0.322371115
0.228312364
0.228312364
0.228312364
0.228312364
0.13618078
0.13618078
0.13618078
0.13618078
0.0452566111
0.0452566111
0.0452566111
0.0452566111
0.944696018
0.944696018
0.944696018
0.944696018
0.83477959
0.83477959
0.83477959
0.83477959
0.726639856
0.726639856
0.726639856
0.726639856
0.621051703
0.621051703
0.621051703
0.621051703
0.518450333
0.518450333
0.518450333
0.518450333
0.418947705
0.418947705
0.418947705
0.418947705
0.322371115
0.322371115
0.322371115
0.322371115
0.228312364
0.228312364
0.228312364
0.228312364
0.13618078
0.13618078
0.13618078
0.13618078
0.0452566111
0.0452566111
0.0452566111
0.0452566111
0.944696018
0.944696018
0.944696018
0.944696018
0.83477959
0.83477959
0.83477959
0.83477959
0.726639856
0.726639856
0.726639856
0.726639856
0.621051703
0.621051703
0.621051703
0.621051703
0.518450333
0.518450333