<VTKFile type="UnstructuredGrid" version="2.2" byte_order="LittleEndian">
<UnstructuredGrid>
<Piece NumberOfPoints="4916" NumberOfCells="1229">
<Points>
<DataArray type="Float64" NumberOfComponents="3" format="ascii">
1 0 0
0.990685946 -0.136166649 0
1.12460385 -0.0123779553 0
1.11183569 -0.155872661 0
0.990685946 -0.136166649 0
0.962917287 -0.269796771 0
1.11183569 -0.155872661 0
1.08498486 -0.297072211 0
0.962917287 -0.269796771 0
0.917211302 -0.39840109 0
1.08498486 -0.297072211 0
1.04572799 -0.435196492 0
0.917211302 -0.39840109 0
0.854419405 -0.51958395 0
1.04572799 -0.435196492 0
0.993718801 -0.581497892 0
0.854419405 -0.51958395 0
0.775711291 -0.631087944 0
0.993718801 -0.581497892 0
0.925173956 -0.764951821 0
0.775711291 -0.631087944 0
0.682553143 -0.730835964 0
0.925173956 -0.764951821 0
0.765602688 -0.871114783 0
0.682553143 -0.730835964 0
0.576680322 -0.816969893 0
0.765602688 -0.871114783 0
0.63015645 -0.952547356 0
0.576680322 -0.816969893 0
0.460065038 -0.887885218 0
0.63015645 -0.952547356 0
0.497310957 -1.01818194 0
0.460065038 -0.887885218 0
0.334879612 -0.942260922 0
0.497310957 -1.01818194 0
0.362825286 -1.06886402 0
0.334879612 -0.942260922 0
0.203456013 -0.979084088 0
0.362825286 -1.06886402 0
0.226407096 -1.10185377 0
0.203456013 -0.979084088 0
0.0682424134 -0.997668769 0
0.226407096 -1.10185377 0
0.0912289925 -1.11692921 0
0.0682424134 -0.997668769 0
-0.0682424134 -0.997668769 0
0.0912289925 -1.11692921 0
-0.0368229028 -1.11466568 0
-0.203456013 -0.979084088 0
-0.334879612 -0.942260922 0
-0.285790355 -1.145175 0
-0.408452925 -1.06867652 0
-0.334879612 -0.942260922 0
-0.460065038 -0.887885218 0
-0.408452925 -1.06867652 0
-0.526576684 -0.996033618 0
-0.460065038 -0.887885218 0
-0.576680322 -0.816969893 0
-0.526576684 -0.996033618 0
-0.644035011 -0.917345041 0
-0.576680322 -0.816969893 0
-0.682553143 -0.730835964 0
-0.644035011 -0.917345041 0
-0.754833539 -0.829397879 0
-0.682553143 -0.730835964 0
-0.775711291 -0.631087944 0
-0.754833539 -0.829397879 0
-0.856669052 -0.731663293 0
-0.775711291 -0.631087944 0
-0.854419405 -0.51958395 0
-0.856669052 -0.731663293 0
-0.959018574 -0.619963636 0
-0.854419405 -0.51958395 0
-0.917211302 -0.39840109 0
-0.959018574 -0.619963636 0
-1.08306313 -0.478276176 0
-0.917211302 -0.39840109 0
-0.962917287 -0.269796771 0
-1.08306313 -0.478276176 0
-1.10791603 -0.28853112 0
-0.962917287 -0.269796771 0
-0.990685946 -0.136166649 0
-1.10791603 -0.28853112 0
-1.12108878 -0.135607867 0
-0.990685946 -0.136166649 0
-1 1.2246468e-16 0
-1.12108878 -0.135607867 0
-1.12266948 0.00785888688 0
-1 1.2246468e-16 0
-0.990685946 0.136166649 0
-1.12266948 0.00785888688 0
-1.11056285 0.149702817 0
-0.990685946 0.136166649 0
-0.962917287 0.269796771 0
-1.11056285 0.149702817 0
-1.08377066 0.289890728 0
-0.962917287 0.269796771 0
-0.917211302 0.39840109 0
-1.08377066 0.289890728 0
-1.04358902 0.427001902 0
-0.917211302 0.39840109 0
-0.854419405 0.51958395 0
-1.04358902 0.427001902 0
-0.989765378 0.57008867 0
-0.854419405 0.51958395 0
-0.775711291 0.631087944 0
-0.989765378 0.57008867 0
-0.915301449 0.746003058 0
-0.775711291 0.631087944 0
-0.682553143 0.730835964 0
-0.915301449 0.746003058 0
-0.757968736 0.854615808 0
-0.682553143 0.730835964 0
-0.576680322 0.816969893 0
-0.757968736 0.854615808 0
-0.628199375 0.936787043 0
-0.576680322 0.816969893 0
-0.460065038 0.887885218 0
-0.628199375 0.936787043 0
-0.501636744 1.00597625 0
-0.460065038 0.887885218 0
-0.334879612 0.942260922 0
-0.501636744 1.00597625 0
-0.369774234 1.06418471 0
-0.334879612 0.942260922 0
-0.203456013 0.979084088 0
-0.369774234 1.06418471 0
-0.231602883 1.10595771 0
-0.203456013 0.979084088 0
-0.0682424134 0.997668769 0
-0.231602883 1.10595771 0
-0.0900165741 1.13313186 0
-0.0682424134 0.997668769 0
0.0682424134 0.997668769 0
-0.0900165741 1.13313186 0
0.0622718399 1.15367756 0
0.0682424134 0.997668769 0
0.203456013 0.979084088 0
0.0622718399 1.15367756 0
0.247067213 1.17959152 0
0.203456013 0.979084088 0
0.334879612 0.942260922 0
0.247067213 1.17959152 0
0.40023475 1.08121863 0
0.334879612 0.942260922 0
0.460065038 0.887885218 0
0.40023475 1.08121863 0
0.527599984 0.999178732 0
0.460065038 0.887885218 0
0.576680322 0.816969893 0
0.527599984 0.999178732 0
0.645500914 0.916598188 0
0.576680322 0.816969893 0
0.682553143 0.730835964 0
0.645500914 0.916598188 0
0.757104902 0.827270674 0
0.682553143 0.730835964 0
0.775711291 0.631087944 0
0.757104902 0.827270674 0
0.86080363 0.729974626 0
0.775711291 0.631087944 0
0.854419405 0.51958395 0
0.86080363 0.729974626 0
0.964463627 0.617901712 0
0.854419405 0.51958395 0
0.917211302 0.39840109 0
0.964463627 0.617901712 0
1.08986247 0.474438842 0
0.917211302 0.39840109 0
0.962917287 0.269796771 0
1.08986247 0.474438842 0
1.11224698 0.284477337 0
0.962917287 0.269796771 0
0.990685946 0.136166649 0
1.11224698 0.284477337 0
1.12399304 0.131059904 0
0.990685946 0.136166649 0
1 0 0
1.12399304 0.131059904 0
1.12460385 -0.0123779553 0
-3 2 0
-3 1.86206897 0
-2.86046512 2 0
-2.8610729 1.86183828 0
-3 1.86206897 0
-3 1.72413793 0
-2.8610729 1.86183828 0
-2.86153443 1.72377609 0
-3 1.72413793 0
-3 1.5862069 0
-2.86153443 1.72377609 0
-2.86184497 1.58577612 0
-3 1.5862069 0
-3 1.44827586 0
-2.86184497 1.58577612 0
-2.86204098 1.44783092 0
-3 1.44827586 0
-3 1.31034483 0
-2.86204098 1.44783092 0
-2.86198125 1.30989723 0
-3 1.31034483 0
-3 1.17241379 0
-2.86198125 1.30989723 0
-2.86158598 1.1720361 0
-3 1.17241379 0
-3 1.03448276 0
-2.86158598 1.1720361 0
-2.86100392 1.03426552 0
-3 1.03448276 0
-3 0.896551724 0
-2.86100392 1.03426552 0
-2.86016023 0.896600668 0
-3 0.896551724 0
-3 0.75862069 0
-2.86016023 0.896600668 0
-2.85926921 0.758958592 0
-3 0.75862069 0
-3 0.620689655 0
-2.85926921 0.758958592 0
-2.85848589 0.621364047 0
-3 0.620689655 0
-3 0.482758621 0
-2.85848589 0.621364047 0
-2.85743407 0.483801059 0
-3 0.482758621 0
-3 0.344827586 0
-2.85743407 0.483801059 0
-2.85630797 0.34621361 0
-3 0.344827586 0
-3 0.206896552 0
-2.85630797 0.34621361 0
-2.85551145 0.208548464 0
-3 0.206896552 0
-3 0.0689655172 0
-2.85551145 0.208548464 0
-2.85512268 0.0708354402 0
-3 0.0689655172 0
-3 -0.0689655172 0
-2.85512268 0.0708354402 0
-2.85514529 -0.0670195315 0
-3 -0.0689655172 0
-3 -0.206896552 0
-2.85514529 -0.0670195315 0
-2.85509778 -0.204789091 0
-3 -0.206896552 0
-3 -0.344827586 0
-2.85509778 -0.204789091 0
-2.85533025 -0.342719163 0
-3 -0.344827586 0
-3 -0.482758621 0
-2.85533025 -0.342719163 0
-2.85535607 -0.480655413 0
-3 -0.482758621 0
-3 -0.620689655 0
-2.85535607 -0.480655413 0
-2.85532223 -0.61870829 0
-3 -0.620689655 0
-3 -0.75862069 0
-2.85532223 -0.61870829 0
-2.85575869 -0.756839981 0
-3 -0.75862069 0
-3 -0.896551724 0
-2.85575869 -0.756839981 0
-2.85667886 -0.895009346 0
-3 -0.896551724 0
-3 -1.03448276 0
-2.85667886 -0.895009346 0
-2.85793452 -1.0331472 0
-3 -1.03448276 0
-3 -1.17241379 0
-2.85793452 -1.0331472 0
-2.85914169 -1.17127295 0
-3 -1.17241379 0
-3 -1.31034483 0
-2.85914169 -1.17127295 0
-2.86006159 -1.30937363 0
-3 -1.31034483 0
-3 -1.44827586 0
-2.86006159 -1.30937363 0
-2.86060641 -1.44744761 0
-3 -1.44827586 0
-3 -1.5862069 0
-2.86060641 -1.44744761 0
-2.86084636 -1.5854741 0
-3 -1.5862069 0
-3 -1.72413793 0
-2.86084636 -1.5854741 0
-2.8609025 -1.72354692 0
-3 -1.72413793 0
-3 -1.86206897 0
-2.8609025 -1.72354692 0
-2.86068774 -1.86175061 0
-3 -1.86206897 0
-3 -2 0
-2.86068774 -1.86175061 0
-2.86046512 -2 0
3 -2 0
3 -1.86206897 0
2.86046512 -2 0
2.8602227 -1.86158968 0
3 -1.86206897 0
3 -1.72413793 0
2.8602227 -1.86158968 0
2.8598389 -1.72320576 0
3 -1.72413793 0
3 -1.5862069 0
2.8598389 -1.72320576 0
2.8593857 -1.58493586 0
3 -1.5862069 0
3 -1.44827586 0
2.8593857 -1.58493586 0
2.85887271 -1.44673411 0
3 -1.44827586 0
3 -1.31034483 0
2.85887271 -1.44673411 0
2.85814815 -1.30847499 0
3 -1.31034483 0
3 -1.17241379 0
2.85814815 -1.30847499 0
2.8568546 -1.17025047 0
3 -1.17241379 0
3 -1.03448276 0
2.8568546 -1.17025047 0
2.85577247 -1.03211132 0
3 -1.03448276 0
3 -0.896551724 0
2.85577247 -1.03211132 0
2.8546221 -0.894025296 0
3 -0.896551724 0
3 -0.75862069 0
2.8546221 -0.894025296 0
2.85363487 -0.756050687 0
3 -0.75862069 0
3 -0.620689655 0
2.85363487 -0.756050687 0
2.85266569 -0.618018634 0
3 -0.620689655 0
3 -0.482758621 0
2.85266569 -0.618018634 0
2.85254338 -0.480073802 0
3 -0.482758621 0
3 -0.344827586 0
2.85254338 -0.480073802 0
2.8528892 -0.342090902 0
3 -0.344827586 0
3 -0.206896552 0
2.8528892 -0.342090902 0
2.85375171 -0.204227578 0
3 -0.206896552 0
3 -0.0689655172 0
2.85375171 -0.204227578 0
2.85478271 -0.0663058565 0
3 -0.0689655172 0
3 0.0689655172 0
2.85478271 -0.0663058565 0
2.85649078 0.0709700839 0
3 0.0689655172 0
3 0.206896552 0
2.85649078 0.0709700839 0
2.85812325 0.2081011 0
3 0.206896552 0
3 0.344827586 0
2.85812325 0.2081011 0
2.85964793 0.344950427 0
3 0.344827586 0
3 0.482758621 0
2.85964793 0.344950427 0
2.86041305 0.481926216 0
3 0.482758621 0
3 0.620689655 0
2.86041305 0.481926216 0
2.86010419 0.618692003 0
3 0.620689655 0
3 0.75862069 0
2.86010419 0.618692003 0
2.85925242 0.755848929 0
3 0.75862069 0
3 0.896551724 0
2.85925242 0.755848929 0
2.85867295 0.893068501 0
3 0.896551724 0
3 1.03448276 0
2.85867295 0.893068501 0
2.85849862 1.030685 0
3 1.03448276 0
3 1.17241379 0
2.85849862 1.030685 0
2.85875075 1.16856316 0
3 1.17241379 0
3 1.31034483 0
2.85875075 1.16856316 0
2.85918697 1.30669338 0
3 1.31034483 0
3 1.44827586 0
2.85918697 1.30669338 0
2.85965974 1.44498374 0
3 1.44827586 0
3 1.5862069 0
2.85965974 1.44498374 0
2.86006279 1.58347476 0
3 1.5862069 0
3 1.72413793 0
2.86006279 1.58347476 0
2.86038556 1.72212707 0
3 1.72413793 0
3 1.86206897 0
2.86038556 1.72212707 0
2.86046776 1.86104259 0
3 1.86206897 0
3 2 0
2.86046776 1.86104259 0
2.86046512 2 0
-2.86046512 -2 0
-2.72093023 -2 0
-2.86068774 -1.86175061 0
-2.7214204 -1.86154135 0
-2.72093023 -2 0
-2.58139535 -2 0
-2.7214204 -1.86154135 0
-2.58207655 -1.86142999 0
-2.58139535 -2 0
-2.44186047 -2 0
-2.58207655 -1.86142999 0
-2.44285255 -1.86143225 0
-2.44186047 -2 0
[...]
<CellData Scalars="attribute">
<DataArray type="Int32" Name="attribute" format="ascii">
1
1
1
1
1
1
1
1
1
1
1
1
1
1
1
1
1
1
1
1
1
1
1
1
1
1
1
1
1
1
1
1
1
1
1
1
1
1
1
1
1
1
1
1
1
1
1
1
1
1
1
1
1
1
1
1
1
1
1
1
1
1
1
1
1
1
1
1
1
1
1
1
1
1
1
1
1
1
1
1
1
1
1
1
1
1
1
1
1
1
1
1
1
1
1
1
1
1
1
1
1
1
1
1
1
1
1
1
1
1
1
1
1
1
1
1
1
1
1
1
1
1
1
1
1
1
1
1
1
1
1
1
1
1
1
1
1
1
1
1
1
1
1
1
1
1
1
1
1
1
1
1
1
1
1
1
1
1
1
1
1
1
1
1
1
1
1
1
1
1
1
1
1
1
1
1
1
1
1
1
1
1
1
1
1
1
1
1
1
1
1
1
1
1
1
1
1
1
1
1
1
1
1
1
1
1
1
1
1
1
1
1
1
1
1
1
1
1
1
1
1
1
1
1
1
1
1
1
1
1
1
1
1
1
1
1
1
1
1
1
1
1
1
1
1
1
1
1
1
1
1
1
1
1
1
1
1
1
1
1
1
1
1
1
1
1
1
1
1
1
1
1
1
1
1
1
1
1
1
1
1
1
1
1
1
1
1
1
1
1
1
1
1
1
1
1
1
1
1
1
1
1
1
1
1
1
1
1
1
1
1
1
1
1
1
1
1
1
1
1
1
1
1
1
1
1
1
1
1
1
1
1
1
1
1
1
1
1
1
1
1
1
1
1
1
1
1
1
1
1
1
1
1
1
1
1
1
1
1
1
1
1
1
1
1
1
1
1
1
1
1
1
1
1
1
1
1
1
1
1
1
1
1
1
1
1
1
1
1
1
1
1
1
1
1
1
1
1
1
1
1
1
1
1
1
1
1
1
1
1
1
1
1
1
1
1
1
1
1
1
1
1
1
1
1
1
1
1
1
1
1
1
1
1
1
1
1
1
1
1
1
1
1
1
1
1
1
1
1
1
1
1
1
1
1
1
1
1
1
1
1
1
1
1
1
1
1
1
1
1
1
1
1
1
1
1
1
1
1
1
1
1
1
1
1
1
1
1
1
1
1
1
1
1
1
1
1
1
1
1
1
1
1
1
1
1
1
1
1
1
1
1
1
1
1
1
1
1
1
1
1
1
1
1
1
1
1
1
1
1
1
1
1
1
1
1
1
1
1
1
1
1
1
1
1
1
1
1
1
1
1
1
1
1
1
1
1
1
1
1
1
1
1
1
1
1
1
1
1
1
1
1
1
1
1
1
1
1
1
1
1
1
1
1
1
1
1
1
1
1
1
1
1
1
1
1
1
1
1
1
1
1
1
1
1
1
1
1
1
1
1
1
1
1
1
1
1
1
1
1
1
1
1
1
1
1
1
1
1
1
1
1
1
1
1
1
1
1
1
1
1
1
1
1
1
1
1
1
1
1
1
1
1
1
1
1
1
1
1
1
1
1
1
1
1
1
1
1
1
1
1
1
1
1
1
1
1
1
1
1
1
1
1
1
1
1
1
1
1
1
1
1
1
1
1
1
1
1
1
1
1
1
1
1
1
1
1
1
1
1
1
1
1
1
1
1
1
1
1
1
1
1
1
1
1
1
1
1
1
1
1
1
1
1
1
1
1
1
1
1
1
1
1
1
1
1
1
1
1
1
1
1
1
1
1
1
1
1
1
1
1
1
1
1
1
1
1
1
1
1
1
1
1
1
1
1
1
1
1
1
1
1
1
1
1
1
1
1
1
1
1
1
1
1
1
1
1
1
1
1
1
1
1
1
1
1
1
1
1
1
1
1
1
1
1
1
1
1
1
1
1
1
1
1
1
1
1
1
1
1
1
1
1
1
1
1
1
1
1
1
1
1
1
1
1
1
1
1
1
1
1
1
1
1
1
1
1
1
1
1
1
1
1
1
1
1
1
1
1
1
1
1
1
1
1
1
1
1
1
1
1
1
1
1
1
1
1
1
1
1
1
1
1
1
1
1
1
1
1
1
1
1
1
1
1
1
1
1
1
1
1
1
1
1
1
1
1
1
1
1
1
1
1
1
1
1
1
1
1
1
1
1
1
1
1
1
1
1
1
1
1
1
1
1
1
1
1
1
1
1
1
1
1
1
1
1
1
1
1
1
1
1
1
1
1
1
1
1
1
1
1
1
1
1
1
1
1
1
1
1
1
1
1
1
1
1
1
1
1
1
1
1
1
1
1
1
1
1
1
1
1
1
1
1
1
1
1
1
1
1
1
1
1
1
1
1
1
1
1
1
1
1
1
1
1
1
1
1
1
1
1
1
1
1
1
1
1
1
1
1
1
1
1
1
1
1
1
1
1
2
2
2
2
2
2
2
2
2
2
2
2
2
2
2
2
2
2
2
2
2
2
2
2
2
2
2
2
2
2
2
2
2
2
2
2
2
2
2
2
2
2
2
2
2
2
2
2
2
2
2
2
2
2
2
2
2
2
2
2
2
2
2
2
2
2
2
2
2
2
2
2
2
2
2
2
2
2
2
2
2
2
2
2
2
2
2
2
2
2
2
2
2
2
2
2
2
2
2
2
2
2
2
2
2
2
2
2
2
2
2
2
2
2
2
2
2
2
2
2
2
2
2
2
2
2
2
2
2
2
2
2
2
2
2
2
2
2
2
2
2
2
2
2
2
2
2
2
2
2
2
2
2
2
2
2
2
2
2
2
2
2
2
2
2
2
2
2
2
2
2
2
2
2
2
2
2
2
2
2
</DataArray>
</CellData>
<PointData >
<DataArray type="Float64" Name="Az" NumberOfComponents="1"  format="ascii" >
2.48809383
2.48402503
2.4529009
2.44860234
2.48402503
2.47212568
2.44860234
2.43485878
2.47212568
2.45301857
2.43485878
2.41123221
2.45301857
2.42690956
2.41123221
2.37300753
2.42690956
2.39528531
2.37300753
2.30178212
2.39528531
2.36042002
2.30178212
2.26496485
2.36042002
2.32394973
2.26496485
2.22723468
2.32394973
2.2895167
2.22723468
2.19101586
2.2895167
2.26005429
2.19101586
2.15957219
2.26005429
2.23854491
2.15957219
2.13784353
2.23854491
2.22741384
2.13784353
2.12798443
2.22741384
2.22740251
2.12798443
2.13066845
2.23996477
2.26041497
2.09789074
2.15723122
2.26041497
2.28964559
2.15723122
2.20565479
2.28964559
2.32396711
2.20565479
2.25040272
2.32396711
2.36014697
2.25040272
2.29260055
2.36014697
2.39531751
2.29260055
2.33122528
2.39531751
2.42683499
2.33122528
2.3644345
2.42683499
2.45273636
2.3644345
2.38909369
2.45273636
2.47229207
2.38909369
2.43030787
2.47229207
2.48405916
2.43030787
2.44789646
2.48405916
2.48795183
2.44789646
2.45340023
2.48795183
2.48386191
2.45340023
2.44948018
2.48386191
2.4719554
2.44948018
2.43648458
2.4719554
2.45285745
2.43648458
2.41405675
2.45285745
2.42670367
2.41405675
2.37833195
2.42670367
2.39507243
2.37833195
2.3136252
2.39507243
2.36018918
2.3136252
2.27637664
2.36018918
2.32373791
2.27637664
2.23847629
2.32373791
2.28934775
2.23847629
2.19993208
2.28934775
2.25992083
2.19993208
2.16288002
2.25992083
2.23845021
2.16288002
2.1340029
2.23845021
2.22754257
2.1340029
2.11352232
2.22754257
2.2282016
2.11352232
2.09524782
2.2282016
2.23992289
2.09524782
2.06919513
2.23992289
2.26055288
2.06919513
2.1471366
2.26055288
2.28952344
2.1471366
2.20313793
2.28952344
2.32384345
2.20313793
2.25071751
2.32384345
2.36006582
2.25071751
2.29354611
2.36006582
2.39528174
2.29354611
2.33134383
2.39528174
2.42683124
2.33134383
2.36415278
2.42683124
2.45275872
2.36415278
2.3885569
2.45275872
2.47237167
2.3885569
2.42989091
2.47237167
2.48417235
2.42989091
2.4475206
2.48417235
2.48809383
2.4475206
2.4529009
1
1
1
1.04025492
1
1
1.04025492
1.06938109
1
1
1.06938109
1.09266019
1
1
1.09266019
1.11194272
1
1
1.11194272
1.12834691
1
1
1.12834691
1.142593
1
1
1.142593
1.15497664
1
1
1.15497664
1.1658639
1
1
1.1658639
1.17522066
1
1
1.17522066
1.18297276
1
1
1.18297276
1.18966473
1
1
1.18966473
1.19512104
1
1
1.19512104
1.19883309
1
1
1.19883309
1.20068641
1
1
1.20068641
1.20067326
1
1
1.20067326
1.1994261
1
1
1.1994261
1.19647116
1
1
1.19647116
1.19241578
1
1
1.19241578
1.18699956
1
1
1.18699956
1.17950897
1
1
1.17950897
1.16989914
1
1
1.16989914
1.15830521
1
1
1.15830521
1.14503229
1
1
1.14503229
1.13006756
1
1
1.13006756
1.11306177
1
1
1.11306177
1.09330721
1
1
1.09330721
1.06969694
1
1
1.06969694
1.04036079
1
1
1.04036079
1
1
1
1
1.04049749
1
1
1.04049749
1.07021946
1
1
1.07021946
1.09427122
1
1
1.09427122
1.11444196
1
1
1.11444196
1.13181041
1
1
1.13181041
1.14731966
1
1
1.14731966
1.1606373
1
1
1.1606373
1.17224821
1
1
1.17224821
1.18203836
1
1
1.18203836
1.19027988
1
1
1.19027988
1.19599014
1
1
1.19599014
1.19964376
1
1
1.19964376
1.20120021
1
1
1.20120021
1.20115501
1
1
1.20115501
1.19887973
1
1
1.19887973
1.19541154
1
1
1.19541154
1.19082298
1
1
1.19082298
1.18594785
1
1
1.18594785
1.18110048
1
1
1.18110048
1.17542142
1
1
1.17542142
1.16778576
1
1
1.16778576
1.15791231
1
1
1.15791231
1.14567251
1
1
1.14567251
1.13112731
1
1
1.13112731
1.11409196
1
1
1.11409196
1.0940887
1
1
1.0940887
1.07018086
1
1
1.07018086
1.0405695
1
1
1.0405695
1
1
1
1.04036079
1.0698526
1
1
1.0698526
1.09363288
1
1
1.09363288
1.1134211
1
1
1.1134211
1.13018297
1
1
1.13018297
1.14473184
1
1
1.14473184
1.15771124
1
1
1.15771124
1.16994594
1
1
1.16994594
1.18204581
1
1
1.18204581
1.19405017
1
1
1.19405017
1.20448892
1
1
1.20448892
1.21470699
1
1
1.21470699
1.22483657
1
1
1.22483657
1.23240706
1
1
1.23240706
1.23336101
1
1
1.23336101
1.2332262
1
1
1.2332262
1.23709738
1
1
1.23709738
1.2458604
1
1
1.2458604
1.25381163
1
1
1.25381163
1.2547533
1
1
1.2547533
1.25268638
1
1
1.25268638
1.25093818
1
1
1.25093818
1.24908464
1
1
1.24908464
1.24077054
1
1
1.24077054
1.22752404
1
1
1.22752404
1.22526734
1
1
1.22526734
1.22803356
1
1
1.22803356
1.22708632
1
1
1.22708632
1.22089615
1
1
1.22089615
1.21807698
1
1
1.21807698
1.21523391
1
1
1.21523391
1.2096334
1
1
1.2096334
1.1989859
1
1
1.1989859
1.18668584
1
1
1.18668584
1.17446634
1
1
1.17446634
1.16154579
1
1
1.16154579
1.14775724
1
1
1.14775724
1.13233333
1
1
1.13233333
1.114819
1
1
1.114819
1.09444508
1
1
1.09444508
1.07025688
1
1
1.07025688
1.04049749
1
1
1.0405695
1.07066858
1
1
1.07066858
1.09532525
1
1
1.09532525
1.11633888
1
1
1.11633888
1.13445185
1
1
1.13445185
1.14997044
1
1
1.14997044
1.16389098
1
1
1.16389098
1.17552718
1
1
1.17552718
1.18554713
1
1
1.18554713
1.19444173
1
1
1.19444173
1.20204802
1
1
1.20204802
1.20922059
1
1
1.20922059
1.21547201
1
1
1.21547201
1.21994058
1
1
1.21994058
1.22612797
1
1
1.22612797
1.2395808
1
1
1.2395808
1.25747728
1
1
1.25747728
1.27406143
1
1
1.27406143
1.25068527
1
1
1.25068527
1.22532204
1
1
1.22532204
1.22239108
1
1
1.22239108
1.22941832
1
1
1.22941832
1.23892341
1
1
1.23892341
1.24728332
1
1
1.24728332
1.2457947
1
1
1.2457947
1.23689491
1
1
1.23689491
1.22941305
1
1
1.22941305
1.22692567
1
1
1.22692567
1.22351217
1
1
1.22351217
1.21648944
1
1
1.21648944
1.2074895
1
1
1.2074895
1.19817643
1
1
1.19817643
1.1889748
1
1
1.1889748
1.17924976
1
1
1.17924976
1.16889208
1
1
1.16889208
1.1575267
1
1
1.1575267
1.14474613
1
1
1.14474613
1.1301457
1
1
1.1301457
1.11326645
1
1
1.11326645
1.09344893
1
1
1.09344893
1.06968385
1
1
1.06968385
1.04025492
2.44860234
2.43485878
2.40479774
2.39003598
2.43485878
2.41123221
2.39003598
2.36359219
2.41123221
2.37300753
2.36359219
2.32113391
2.37300753
2.30178212
2.32113391
2.25104932
2.26496485
2.22723468
2.13910355
2.10675396
2.22723468
2.19101586
2.10675396
2.06971327
2.19101586
2.15957219
2.06971327
2.03537047
2.15957219
2.13784353
2.03537047
2.01378511
2.13784353
2.12798443
2.01378511
2.00532003
2.12798443
2.13066845
2.00532003
2.01348415
2.15723122
2.20565479
2.04375274
2.11127638
2.20565479
2.25040272
2.11127638
2.16311618
2.25040272
2.29260055
2.16311618
2.20991379
2.29260055
2.33122528
2.20991379
2.25371687
2.33122528
2.3644345
2.25371687
2.28474168
2.3644345
2.38909369
2.28474168
2.29792206
2.43030787
2.44789646
2.38394323
2.40387509
2.44789646
2.45340023
2.40387509
2.41050014
2.45340023
2.44948018
2.41050014
2.40690844
2.44948018
2.43648458
2.40690844
2.3935982
2.43648458
2.41405675
2.3935982
2.36947502
2.41405675
2.37833195
2.36947502
2.33118244
2.37833195
2.3136252
2.33118244
2.26962624
2.27637664
2.23847629
2.16980756
2.13550835
2.23847629
2.19993208
2.13550835
2.09115625
2.19993208
2.16288002
2.09115625
2.04420705
2.16288002
2.1340029
2.04420705
2.00787628
2.1340029
2.11352232
2.00787628
1.97865622
2.11352232
2.09524782
1.97865622
1.943495
2.09524782
2.06919513
1.943495
1.8834532
2.1471366
2.20313793
2.02971953
2.10759688
2.20313793
2.25071751
2.10759688
2.16600466
2.25071751
2.29354611
2.16600466
2.21322902
2.29354611
2.33134383
2.21322902
2.25346374
2.33134383
2.36415278
2.25346374
2.28347953
2.36415278
2.3885569
2.28347953
2.29645068
2.42989091
2.4475206
2.3830083
2.40301511
2.4475206
2.4529009
2.40301511
2.40935064
2.4529009
2.44860234
2.40935064
2.40479774
2.3885569
2.42989091
2.34243388
2.3830083
2.29645068
2.3885569
2.27749792
2.34243388
2.06919513
2.1471366
1.91792134
2.02971953
1.8834532
2.06919513
1.76371579
1.91792134
2.3136252
2.27637664
2.19073992
2.16980756
2.26962624
2.3136252
2.18015947
2.19073992
2.38909369
2.43030787
2.34372115
2.38394323
2.29792206
2.38909369
2.27922768
2.34372115
2.09789074
2.15723122
1.92194744
2.04375274
2.30178212
2.26496485
2.16086924
2.13910355
2.25104932
2.30178212
2.14770342
2.16086924
1.04049749
1.07021946
1.07025688
1.12663734
1.07021946
1.09427122
1.12663734
1.17322805
1.09427122
1.11444196
1.17322805
1.21267171
1.11444196
1.13181041
1.21267171
1.24691476
1.13181041
1.14731966
1.24691476
1.27670524
1.14731966
1.1606373
1.27670524
1.30280172
1.1606373
1.17224821
1.30280172
1.32574749
1.17224821
1.18203836
1.32574749
1.34537414
1.18203836
1.19027988
1.34537414
1.36126522
1.19027988
1.19599014
1.36126522
1.37274553
1.19599014
1.19964376
1.37274553
1.37987678
1.19964376
1.20120021
1.37987678
1.38308091
1.20120021
1.20115501
1.38308091
1.38234861
1.20115501
1.19887973
1.38234861
1.37830656
1.19887973
1.19541154
1.37830656
1.37165849
1.19541154
1.19082298
1.37165849
1.36280725
1.19082298
1.18594785
1.36280725
1.35313281
1.18594785
1.18110048
1.35313281
1.34349653
1.18110048
1.17542142
1.34349653
1.33264238
1.17542142
1.16778576
1.33264238
1.31772751
1.16778576
1.15791231
1.31772751
1.29828936
1.15791231
1.14567251
1.29828936
1.27427908
1.14567251
1.13112731
1.27427908
1.24581251
1.13112731
1.11409196
1.24581251
1.2124914
1.11409196
1.0940887
1.2124914
1.17341245
1.0940887
1.07018086
1.17341245
1.12705908
1.07018086
1.0405695
1.12705908
1.07066858
1.04025492
1.06938109
1.06968385
1.12498166
1.06938109
1.09266019
1.12498166
1.17011338
1.09266019
1.11194272
1.17011338
1.20793
1.11194272
1.12834691
1.20793
1.24021012
1.12834691
1.142593
1.24021012
1.26816703
1.142593
1.15497664
1.26816703
1.29254032
1.15497664
1.1658639
1.29254032
1.31384492
1.1658639
1.17522066
1.31384492
1.33207601
1.17522066
1.18297276
1.33207601
1.3474155
1.18297276
1.18966473
1.3474155
1.36046489
1.18966473
1.19512104
1.36046489
1.37118022
1.19512104
1.19883309
1.37118022
1.37850545
1.19883309
1.20068641
1.37850545
1.38208023
1.20068641
1.20067326
1.38208023
1.38213899
1.20067326
1.1994261
1.38213899
1.37925042
1.1994261
1.19647116
1.37925042
1.3737706
1.19647116
1.19241578
1.3737706
1.36586272
1.19241578
1.18699956
1.36586272
1.35491996
1.18699956
1.17950897
1.35491996
1.34024341
1.17950897
1.16989914
1.34024341
1.32110661
1.16989914
1.15830521
1.32110661
1.29812572
1.15830521
1.14503229
1.29812572
1.27212091
1.14503229
1.13006756
1.27212091
1.24294295
1.13006756
1.11306177
1.24294295
1.20972218
1.11306177
1.09330721
1.20972218
1.17117816
1.09330721
1.06969694
1.17117816
1.12552777
1.06969694
1.04036079
1.12552777
1.0698526
1.07066858
1.09532525
1.12705908
1.17462732
1.09532525
1.11633888
1.17462732
1.21545662
1.11633888
1.13445185
1.21545662
1.25073639
1.13445185
1.14997044
1.25073639
1.28155535
1.14997044
1.16389098
1.28155535
1.30827764
1.16389098
1.17552718
1.30827764
1.33136049
1.17552718
1.18554713
1.33136049
1.3516638
1.18554713
1.19444173
1.3516638
1.36905272
1.19444173
1.20204802
1.36905272
1.38408042
1.20204802
1.20922059
1.38408042
1.39832889
1.20922059
1.21547201
1.39832889
1.41098188
1.21547201
1.21994058
1.41098188
1.41825692
1.21994058
1.22612797
1.41825692
1.42823426
1.22612797
1.2395808
1.42823426
1.45244705
1.2395808
1.25747728
1.45244705
1.49505053
1.25747728
1.27406143
1.49505053
1.57184715
1.27406143
1.25068527
1.57184715
1.47457642
1.25068527
1.22532204
1.47457642
1.4201891
1.22532204
1.22239108
1.4201891
1.42113816
1.22239108
1.22941832
1.42113816
1.43795057
1.22941832
1.23892341
1.43795057
1.45651057
1.23892341
1.24728332
1.45651057
1.47061046
1.24728332
1.2457947
1.47061046
1.47564918
1.2457947
1.23689491
1.47564918
1.44856645
1.23689491
1.22941305
1.44856645
1.43458821
1.22941305
1.22692567
1.43458821
1.43164601
1.22692567
1.22351217
1.43164601
1.42651249
1.22351217
1.21648944
1.42651249
1.41107131
1.21648944
1.2074895
1.41107131
1.39320578
1.2074895
1.19817643
1.39320578
1.37541368
1.19817643
1.1889748
1.37541368
1.35752486
1.1889748
1.17924976
1.35752486
1.33885391
1.17924976
1.16889208
1.33885391
1.31862251
1.16889208
1.1575267
1.31862251
1.2963401
1.1575267
1.14474613
1.2963401
1.27131201
1.14474613
1.1301457
1.27131201
1.24266707
1.1301457
1.11326645
1.24266707
1.20955725
1.11326645
1.09344893
1.20955725
1.17083865
1.09344893
1.06968385
1.17083865
1.12498166
1.0698526
1.09363288
1.12552777
1.17146407
1.09363288
1.1134211
1.17146407
1.21007781
1.1134211
1.13018297
1.21007781
1.24304913
1.13018297
1.14473184
1.24304913
1.27147156
1.14473184
1.15771124
1.27147156
1.29686725
1.15771124
1.16994594
1.29686725
1.32092686
1.16994594
1.18204581
1.32092686
1.34482466
1.18204581
1.19405017
1.34482466
1.36702471
1.19405017
1.20448892
1.36702471
1.38706677
1.20448892
1.21470699
1.38706677
1.40672548
1.21470699
1.22483657
1.40672548
1.42754715
1.22483657
1.23240706
1.42754715
1.44089654
1.23240706
1.23336101
1.44089654
1.44453303
1.23336101
1.2332262
1.44453303
1.44301681
1.2332262
1.23709738
1.44301681
1.44994152
1.23709738
1.2458604
1.44994152
1.46873489
1.2458604
1.25381163
1.46873489
1.48157349
1.25381163
1.2547533
1.48157349
1.48516581
1.2547533
1.25268638
1.48516581
1.48068088
1.25268638
1.25093818
1.48068088
1.47771674
1.25093818
1.24908464
1.47771674
1.47356007
1.24908464
1.24077054
1.47356007
1.4627618
1.24077054
1.22752404
1.4627618
1.42699522
1.22752404
1.22526734
1.42699522
1.42792694
1.22526734
1.22803356
1.42792694
1.43568178
1.22803356
1.22708632
1.43568178
1.43063329
1.22708632
1.22089615
1.43063329
1.41945091
1.22089615
1.21807698
1.41945091
1.41445647
1.21807698
1.21523391
1.41445647
1.41037583
1.21523391
1.2096334
1.41037583
1.39910386
1.2096334
1.1989859
1.39910386
1.37696099
1.1989859
1.18668584
1.37696099
1.3533002
1.18668584
1.17446634
1.3533002
1.32925383
1.17446634
1.16154579
1.32925383
1.3044982
1.16154579
1.14775724
1.3044982
1.27758453
1.14775724
1.13233333
1.27758453
1.24755682
1.13233333
1.114819
1.24755682
1.21321541
1.114819
1.09444508
1.21321541
1.17343118
1.09444508
1.07025688
1.17343118
1.12663734
1.76371579
1.91792134
1.57184715
1.78370895
1.91792134
2.02971953
1.78370895
1.91903636
2.02971953
2.10759688
1.91903636
2.01062011
2.10759688
2.16600466
2.01062011
2.07308391
2.16600466
2.21322902
2.07308391
2.12028793
2.21322902
2.25346374
2.12028793
2.16079557
2.25346374
2.28347953
2.16079557
2.19527346
2.28347953
2.29645068
2.19527346
2.20800389
2.29645068
2.27749792
2.20800389
2.20134906
2.27749792
2.24120615
2.20134906
2.17442716
2.27749792
2.34243388
2.24120615
2.29376589
2.34243388
2.3830083
2.29376589
2.33071765
2.3830083
2.40301511
2.33071765
2.35012154
2.40301511
2.40935064
2.35012154
2.35668787
2.40935064
2.40479774
2.35668787
2.3522551
2.40479774
2.39003598
2.3522551
2.33749476
2.39003598
2.36359219
2.33749476
2.31106797
2.36359219
2.32113391
2.31106797
2.26859841
2.32113391
2.25104932
2.26859841
2.20557115
2.25104932
2.14770342
2.20557115
2.11854492
2.14770342
2.02826574
2.11854492
2.01462316
2.14770342
2.16086924
2.02826574
2.02281539
2.16086924
2.13910355
2.02281539
1.99284416
2.13910355
2.10675396
1.99284416
1.96409955
2.10675396
2.06971327
1.96409955
1.92542497
2.06971327
2.03537047
1.92542497
1.8843347
2.03537047
2.01378511
1.8843347
1.86365104
2.01378511
2.00532003
1.86365104
1.85697872
2.00532003
2.01348415
1.85697872
1.86345308
2.01348415
2.03635956
1.86345308
1.88378622
1.69525365
1.92194744
1.66246515
1.83114513
1.92194744
2.04375274
1.83114513
1.94894855
2.04375274
2.11127638
1.94894855
2.01230719
2.11127638
2.16311618
2.01230719
2.06299276
2.16311618
2.20991379
2.06299276
2.11382825
2.20991379
2.25371687
2.11382825
2.1623681
2.25371687
2.28474168
2.1623681
2.19623115
2.28474168
2.29792206
2.19623115
2.21112432
2.29792206
2.27922768
2.21112432
2.20131123
2.27922768
2.24393483
2.20131123
2.17666981
2.27922768
2.34372115
2.24393483
2.29605651
2.34372115
2.38394323
2.29605651
2.332365
2.38394323
2.40387509
2.332365
2.3517004
2.40387509
2.41050014
2.3517004
2.35872685
2.41050014
2.40690844
2.35872685
2.35549119
2.40690844
2.3935982
2.35549119
2.34258931
2.3935982
2.36947502
2.34258931
2.31910875
2.36947502
2.33118244
2.31910875
2.28223759
2.33118244
2.26962624
2.28223759
2.22566003
2.26962624
2.18015947
2.22566003
2.15081329
2.18015947
2.07622592
2.15081329
2.06027577
2.18015947
2.19073992
2.07622592
2.07321026
2.19073992
2.16980756
2.07321026
2.05267119
2.16980756
2.13550835
2.05267119
2.01627795
2.13550835
2.09115625
2.01627795
1.96849835
2.09115625
2.04420705
1.96849835
1.90244787
2.04420705
2.00787628
1.90244787
1.85990324
2.00787628
1.97865622
1.85990324
1.8266044
1.97865622
1.943495
1.8266044
1.78586715
1.943495
1.8834532
1.78586715
1.72703553
1.8834532
1.76371579
1.72703553
1.63731765
1.76371579
1.57184715
1.63731765
1.47457642
1.12498166
1.17011338
1.17083865
1.23563481
1.17011338
1.20793
1.23563481
1.29055905
1.20793
1.24021012
1.29055905
1.33770614
1.24021012
1.26816703
1.33770614
1.37857195
1.26816703
1.29254032
1.37857195
1.41428979
1.29254032
1.31384492
1.41428979
1.4455474
1.31384492
1.33207601
1.4455474
1.47227185
1.33207601
1.3474155
1.47227185
1.49453863
1.3474155
1.36046489
1.49453863
1.51352922
1.36046489
1.37118022
1.51352922
1.52967291
1.37118022
1.37850545
1.52967291
1.54054759
1.37850545
1.38208023
1.54054759
1.54570143
1.38208023
1.38213899
1.54570143
1.54567522
1.38213899
1.37925042
1.54567522
1.54142474
1.37925042
1.3737706
1.54142474
1.53321958
1.3737706
1.36586272
1.53321958
1.5212542
1.36586272
1.35491996
1.5212542
1.50522776
1.35491996
1.34024341
1.50522776
1.48388138
1.34024341
1.32110661
1.48388138
1.45524171
1.32110661
1.29812572
1.45524171
1.42140491
1.29812572
1.27212091
1.42140491
1.38338118
1.27212091
1.24294295
1.38338118
1.34084703
1.24294295
1.20972218
1.34084703
1.29258199
1.20972218
1.17117816
1.29258199
1.23684454
1.17117816
1.12552777
1.23684454
1.17146407
1.12663734
1.17322805
1.17343118
1.24025225
1.17322805
1.21267171
1.24025225
1.29754352
1.21267171
1.24691476