<VTKFile type="UnstructuredGrid" version="0.1" byte_order="LittleEndian">
<UnstructuredGrid>
<Piece NumberOfPoints="3584" NumberOfCells="448">
<Points>
<DataArray type="Float64" NumberOfComponents="3" format="ascii">
0 -1 -1
0.25 -1 -1
0 -0.75 -1
0.25 -0.75 -1
0 -1 -0.75
0.25 -1 -0.75
0 -0.75 -0.75
0.25 -0.75 -0.75
0.25 -1 -1
0.5 -1 -1
0.25 -0.75 -1
0.5 -0.75 -1
0.25 -1 -0.75
0.5 -1 -0.75
0.25 -0.75 -0.75
0.5 -0.75 -0.75
0.25 -0.75 -1
0.5 -0.75 -1
0.25 -0.5 -1
0.5 -0.5 -1
0.25 -0.75 -0.75
0.5 -0.75 -0.75
0.25 -0.5 -0.75
0.5 -0.5 -0.75
0 -0.75 -1
0.25 -0.75 -1
0 -0.5 -1
0.25 -0.5 -1
0 -0.75 -0.75
0.25 -0.75 -0.75
0 -0.5 -0.75
0.25 -0.5 -0.75
0 -1 -0.75
0.25 -1 -0.75
0 -0.75 -0.75
0.25 -0.75 -0.75
0 -1 -0.5
0.25 -1 -0.5
0 -0.75 -0.5
0.25 -0.75 -0.5
0.25 -1 -0.75
0.5 -1 -0.75
0.25 -0.75 -0.75
0.5 -0.75 -0.75
0.25 -1 -0.5
0.5 -1 -0.5
0.25 -0.75 -0.5
0.5 -0.75 -0.5
0.25 -0.75 -0.75
0.5 -0.75 -0.75
0.25 -0.5 -0.75
0.5 -0.5 -0.75
0.25 -0.75 -0.5
0.5 -0.75 -0.5
0.25 -0.5 -0.5
0.5 -0.5 -0.5
0 -0.75 -0.75
0.25 -0.75 -0.75
0 -0.5 -0.75
0.25 -0.5 -0.75
0 -0.75 -0.5
0.25 -0.75 -0.5
0 -0.5 -0.5
0.25 -0.5 -0.5
0.5 -1 -1
0.75 -1 -1
0.5 -0.75 -1
0.75 -0.75 -1
0.5 -1 -0.75
0.75 -1 -0.75
0.5 -0.75 -0.75
0.75 -0.75 -0.75
0.75 -1 -1
1 -1 -1
0.75 -0.75 -1
1 -0.75 -1
0.75 -1 -0.75
1 -1 -0.75
0.75 -0.75 -0.75
1 -0.75 -0.75
0.75 -0.75 -1
1 -0.75 -1
0.75 -0.5 -1
1 -0.5 -1
0.75 -0.75 -0.75
1 -0.75 -0.75
0.75 -0.5 -0.75
1 -0.5 -0.75
0.5 -0.75 -1
0.75 -0.75 -1
0.5 -0.5 -1
0.75 -0.5 -1
0.5 -0.75 -0.75
0.75 -0.75 -0.75
0.5 -0.5 -0.75
0.75 -0.5 -0.75
0.5 -1 -0.75
0.75 -1 -0.75
0.5 -0.75 -0.75
0.75 -0.75 -0.75
0.5 -1 -0.5
0.75 -1 -0.5
0.5 -0.75 -0.5
0.75 -0.75 -0.5
0.75 -1 -0.75
1 -1 -0.75
0.75 -0.75 -0.75
1 -0.75 -0.75
0.75 -1 -0.5
1 -1 -0.5
0.75 -0.75 -0.5
1 -0.75 -0.5
0.75 -0.75 -0.75
1 -0.75 -0.75
0.75 -0.5 -0.75
1 -0.5 -0.75
0.75 -0.75 -0.5
1 -0.75 -0.5
0.75 -0.5 -0.5
1 -0.5 -0.5
0.5 -0.75 -0.75
0.75 -0.75 -0.75
0.5 -0.5 -0.75
0.75 -0.5 -0.75
0.5 -0.75 -0.5
0.75 -0.75 -0.5
0.5 -0.5 -0.5
0.75 -0.5 -0.5
0.5 -0.5 -1
0.75 -0.5 -1
0.5 -0.25 -1
0.75 -0.25 -1
0.5 -0.5 -0.75
0.75 -0.5 -0.75
0.5 -0.25 -0.75
0.75 -0.25 -0.75
0.75 -0.5 -1
1 -0.5 -1
0.75 -0.25 -1
1 -0.25 -1
0.75 -0.5 -0.75
1 -0.5 -0.75
0.75 -0.25 -0.75
1 -0.25 -0.75
0.75 -0.25 -1
1 -0.25 -1
0.75 0 -1
1 0 -1
0.75 -0.25 -0.75
1 -0.25 -0.75
0.75 0 -0.75
1 0 -0.75
0.5 -0.25 -1
0.75 -0.25 -1
0.5 0 -1
0.75 0 -1
0.5 -0.25 -0.75
0.75 -0.25 -0.75
0.5 0 -0.75
0.75 0 -0.75
0.5 -0.5 -0.75
0.75 -0.5 -0.75
0.5 -0.25 -0.75
0.75 -0.25 -0.75
0.5 -0.5 -0.5
0.75 -0.5 -0.5
0.5 -0.25 -0.5
0.75 -0.25 -0.5
0.75 -0.5 -0.75
1 -0.5 -0.75
0.75 -0.25 -0.75
1 -0.25 -0.75
0.75 -0.5 -0.5
1 -0.5 -0.5
0.75 -0.25 -0.5
1 -0.25 -0.5
0.75 -0.25 -0.75
1 -0.25 -0.75
0.75 0 -0.75
1 0 -0.75
0.75 -0.25 -0.5
1 -0.25 -0.5
0.75 0 -0.5
1 0 -0.5
0.5 -0.25 -0.75
0.75 -0.25 -0.75
0.5 0 -0.75
0.75 0 -0.75
0.5 -0.25 -0.5
0.75 -0.25 -0.5
0.5 0 -0.5
0.75 0 -0.5
0 -0.5 -1
0.25 -0.5 -1
0 -0.25 -1
0.25 -0.25 -1
0 -0.5 -0.75
0.25 -0.5 -0.75
0 -0.25 -0.75
0.25 -0.25 -0.75
0.25 -0.5 -1
0.5 -0.5 -1
0.25 -0.25 -1
0.5 -0.25 -1
0.25 -0.5 -0.75
0.5 -0.5 -0.75
0.25 -0.25 -0.75
0.5 -0.25 -0.75
0.25 -0.25 -1
0.5 -0.25 -1
0.25 0 -1
0.5 0 -1
0.25 -0.25 -0.75
0.5 -0.25 -0.75
0.25 0 -0.75
0.5 0 -0.75
0 -0.25 -1
0.25 -0.25 -1
0 0 -1
0.25 0 -1
0 -0.25 -0.75
0.25 -0.25 -0.75
0 0 -0.75
0.25 0 -0.75
0 -0.5 -0.75
0.25 -0.5 -0.75
0 -0.25 -0.75
0.25 -0.25 -0.75
0 -0.5 -0.5
0.25 -0.5 -0.5
0 -0.25 -0.5
0.25 -0.25 -0.5
0.25 -0.5 -0.75
0.5 -0.5 -0.75
0.25 -0.25 -0.75
0.5 -0.25 -0.75
0.25 -0.5 -0.5
0.5 -0.5 -0.5
0.25 -0.25 -0.5
0.5 -0.25 -0.5
0.25 -0.25 -0.75
0.5 -0.25 -0.75
0.25 0 -0.75
0.5 0 -0.75
0.25 -0.25 -0.5
0.5 -0.25 -0.5
0.25 0 -0.5
0.5 0 -0.5
0 -0.25 -0.75
0.25 -0.25 -0.75
0 0 -0.75
0.25 0 -0.75
0 -0.25 -0.5
0.25 -0.25 -0.5
0 0 -0.5
0.25 0 -0.5
0 -1 -0.5
0.25 -1 -0.5
0 -0.75 -0.5
0.25 -0.75 -0.5
0 -1 -0.25
0.25 -1 -0.25
0 -0.75 -0.25
0.25 -0.75 -0.25
0.25 -1 -0.5
0.5 -1 -0.5
0.25 -0.75 -0.5
0.5 -0.75 -0.5
0.25 -1 -0.25
0.5 -1 -0.25
0.25 -0.75 -0.25
0.5 -0.75 -0.25
0.25 -0.75 -0.5
0.5 -0.75 -0.5
0.25 -0.5 -0.5
0.5 -0.5 -0.5
0.25 -0.75 -0.25
0.5 -0.75 -0.25
0.25 -0.5 -0.25
0.5 -0.5 -0.25
0 -0.75 -0.5
0.25 -0.75 -0.5
0 -0.5 -0.5
0.25 -0.5 -0.5
0 -0.75 -0.25
0.25 -0.75 -0.25
0 -0.5 -0.25
0.25 -0.5 -0.25
0 -1 -0.25
0.25 -1 -0.25
0 -0.75 -0.25
0.25 -0.75 -0.25
0 -1 0
0.25 -1 0
0 -0.75 0
0.25 -0.75 0
0.25 -1 -0.25
0.5 -1 -0.25
0.25 -0.75 -0.25
0.5 -0.75 -0.25
0.25 -1 0
0.5 -1 0
0.25 -0.75 0
0.5 -0.75 0
0.25 -0.75 -0.25
0.5 -0.75 -0.25
0.25 -0.5 -0.25
0.5 -0.5 -0.25
0.25 -0.75 0
0.5 -0.75 0
0.25 -0.5 0
0.5 -0.5 0
0 -0.75 -0.25
0.25 -0.75 -0.25
0 -0.5 -0.25
0.25 -0.5 -0.25
0 -0.75 0
0.25 -0.75 0
0 -0.5 0
0.25 -0.5 0
0.5 -1 -0.5
0.75 -1 -0.5
0.5 -0.75 -0.5
0.75 -0.75 -0.5
0.5 -1 -0.25
0.75 -1 -0.25
0.5 -0.75 -0.25
0.75 -0.75 -0.25
0.75 -1 -0.5
1 -1 -0.5
0.75 -0.75 -0.5
1 -0.75 -0.5
0.75 -1 -0.25
1 -1 -0.25
0.75 -0.75 -0.25
1 -0.75 -0.25
0.75 -0.75 -0.5
1 -0.75 -0.5
0.75 -0.5 -0.5
1 -0.5 -0.5
0.75 -0.75 -0.25
1 -0.75 -0.25
0.75 -0.5 -0.25
1 -0.5 -0.25
0.5 -0.75 -0.5
0.75 -0.75 -0.5
0.5 -0.5 -0.5
0.75 -0.5 -0.5
0.5 -0.75 -0.25
0.75 -0.75 -0.25
0.5 -0.5 -0.25
0.75 -0.5 -0.25
0.5 -1 -0.25
0.75 -1 -0.25
0.5 -0.75 -0.25
0.75 -0.75 -0.25
0.5 -1 0
0.75 -1 0
0.5 -0.75 0
0.75 -0.75 0
0.75 -1 -0.25
1 -1 -0.25
0.75 -0.75 -0.25
1 -0.75 -0.25
0.75 -1 0
1 -1 0
0.75 -0.75 0
1 -0.75 0
0.75 -0.75 -0.25
1 -0.75 -0.25
0.75 -0.5 -0.25
1 -0.5 -0.25
0.75 -0.75 0
1 -0.75 0
0.75 -0.5 0
1 -0.5 0
0.5 -0.75 -0.25
0.75 -0.75 -0.25
0.5 -0.5 -0.25
0.75 -0.5 -0.25
0.5 -0.75 0
0.75 -0.75 0
0.5 -0.5 0
0.75 -0.5 0
0.5 -0.5 -0.5
0.75 -0.5 -0.5
0.5 -0.25 -0.5
0.75 -0.25 -0.5
0.5 -0.5 -0.25
0.75 -0.5 -0.25
0.5 -0.25 -0.25
0.75 -0.25 -0.25
0.75 -0.5 -0.5
1 -0.5 -0.5
0.75 -0.25 -0.5
1 -0.25 -0.5
0.75 -0.5 -0.25
1 -0.5 -0.25
0.75 -0.25 -0.25
1 -0.25 -0.25
0.75 -0.25 -0.5
1 -0.25 -0.5
0.75 0 -0.5
1 0 -0.5
0.75 -0.25 -0.25
1 -0.25 -0.25
0.75 0 -0.25
1 0 -0.25
0.5 -0.25 -0.5
0.75 -0.25 -0.5
0.5 0 -0.5
0.75 0 -0.5
0.5 -0.25 -0.25
0.75 -0.25 -0.25
0.5 0 -0.25
0.75 0 -0.25
0.5 -0.5 -0.25
0.75 -0.5 -0.25
0.5 -0.25 -0.25
0.75 -0.25 -0.25
0.5 -0.5 0
0.75 -0.5 0
0.5 -0.25 0
0.75 -0.25 0
0.75 -0.5 -0.25
1 -0.5 -0.25
0.75 -0.25 -0.25
1 -0.25 -0.25
0.75 -0.5 0
1 -0.5 0
0.75 -0.25 0
1 -0.25 0
0.75 -0.25 -0.25
1 -0.25 -0.25
0.75 0 -0.25
1 0 -0.25
0.75 -0.25 0
1 -0.25 0
0.75 0 0
1 0 0
0.5 -0.25 -0.25
0.75 -0.25 -0.25
0.5 0 -0.25
0.75 0 -0.25
0.5 -0.25 0
0.75 -0.25 0
0.5 0 0
0.75 0 0
0 -0.5 -0.5
0.25 -0.5 -0.5
0 -0.25 -0.5
0.25 -0.25 -0.5
0 -0.5 -0.25
0.25 -0.5 -0.25
0 -0.25 -0.25
0.25 -0.25 -0.25
0.25 -0.5 -0.5
0.5 -0.5 -0.5
0.25 -0.25 -0.5
0.5 -0.25 -0.5
0.25 -0.5 -0.25
0.5 -0.5 -0.25
0.25 -0.25 -0.25
0.5 -0.25 -0.25
0.25 -0.25 -0.5
0.5 -0.25 -0.5
0.25 0 -0.5
0.5 0 -0.5
0.25 -0.25 -0.25
0.5 -0.25 -0.25
0.25 0 -0.25
0.5 0 -0.25
0 -0.25 -0.5
0.25 -0.25 -0.5
0 0 -0.5
0.25 0 -0.5
0 -0.25 -0.25
0.25 -0.25 -0.25
0 0 -0.25
0.25 0 -0.25
0 -0.5 -0.25
0.25 -0.5 -0.25
0 -0.25 -0.25
0.25 -0.25 -0.25
0 -0.5 0
0.25 -0.5 0
0 -0.25 0
0.25 -0.25 0
0.25 -0.5 -0.25
0.5 -0.5 -0.25
0.25 -0.25 -0.25
0.5 -0.25 -0.25
0.25 -0.5 0
0.5 -0.5 0
0.25 -0.25 0
0.5 -0.25 0
0.25 -0.25 -0.25
0.5 -0.25 -0.25
0.25 0 -0.25
0.5 0 -0.25
0.25 -0.25 0
0.5 -0.25 0
0.25 0 0
0.5 0 0
0 -0.25 -0.25
0.25 -0.25 -0.25
0 0 -0.25
0.25 0 -0.25
0 -0.25 0
0.25 -0.25 0
0 0 0
0.25 0 0
0 0 -1
0.25 0 -1
0 0.25 -1
0.25 0.25 -1
0 0 -0.75
0.25 0 -0.75
0 0.25 -0.75
0.25 0.25 -0.75
0.25 0 -1
0.5 0 -1
0.25 0.25 -1
0.5 0.25 -1
0.25 0 -0.75
0.5 0 -0.75
0.25 0.25 -0.75
0.5 0.25 -0.75
0.25 0.25 -1
0.5 0.25 -1
0.25 0.5 -1
0.5 0.5 -1
0.25 0.25 -0.75
0.5 0.25 -0.75
0.25 0.5 -0.75
0.5 0.5 -0.75
0 0.25 -1
0.25 0.25 -1
0 0.5 -1
0.25 0.5 -1
0 0.25 -0.75
0.25 0.25 -0.75
0 0.5 -0.75
0.25 0.5 -0.75
0 0 -0.75
0.25 0 -0.75
0 0.25 -0.75
0.25 0.25 -0.75
0 0 -0.5
0.25 0 -0.5
0 0.25 -0.5
0.25 0.25 -0.5
0.25 0 -0.75
0.5 0 -0.75
0.25 0.25 -0.75
0.5 0.25 -0.75
0.25 0 -0.5
0.5 0 -0.5
0.25 0.25 -0.5
0.5 0.25 -0.5
0.25 0.25 -0.75
0.5 0.25 -0.75
0.25 0.5 -0.75
0.5 0.5 -0.75
0.25 0.25 -0.5
0.5 0.25 -0.5
0.25 0.5 -0.5
0.5 0.5 -0.5
0 0.25 -0.75
0.25 0.25 -0.75
0 0.5 -0.75
0.25 0.5 -0.75
0 0.25 -0.5
0.25 0.25 -0.5
0 0.5 -0.5
0.25 0.5 -0.5
0.5 0 -1
0.75 0 -1
0.5 0.25 -1
0.75 0.25 -1
0.5 0 -0.75
0.75 0 -0.75
0.5 0.25 -0.75
0.75 0.25 -0.75
0.75 0 -1
1 0 -1
0.75 0.25 -1
1 0.25 -1
0.75 0 -0.75
1 0 -0.75
0.75 0.25 -0.75
1 0.25 -0.75
0.75 0.25 -1
1 0.25 -1
0.75 0.5 -1
1 0.5 -1
0.75 0.25 -0.75
1 0.25 -0.75
0.75 0.5 -0.75
1 0.5 -0.75
0.5 0.25 -1
0.75 0.25 -1
0.5 0.5 -1
0.75 0.5 -1
0.5 0.25 -0.75
0.75 0.25 -0.75
0.5 0.5 -0.75
0.75 0.5 -0.75
0.5 0 -0.75
0.75 0 -0.75
0.5 0.25 -0.75
0.75 0.25 -0.75
0.5 0 -0.5
0.75 0 -0.5
0.5 0.25 -0.5
0.75 0.25 -0.5
0.75 0 -0.75
1 0 -0.75
0.75 0.25 -0.75
1 0.25 -0.75
0.75 0 -0.5
1 0 -0.5
0.75 0.25 -0.5
1 0.25 -0.5
0.75 0.25 -0.75
1 0.25 -0.75
0.75 0.5 -0.75
1 0.5 -0.75
0.75 0.25 -0.5
1 0.25 -0.5
0.75 0.5 -0.5
1 0.5 -0.5
0.5 0.25 -0.75
0.75 0.25 -0.75
0.5 0.5 -0.75
0.75 0.5 -0.75
0.5 0.25 -0.5
0.75 0.25 -0.5
0.5 0.5 -0.5
0.75 0.5 -0.5
0.5 0.5 -1
0.75 0.5 -1
0.5 0.75 -1
0.75 0.75 -1
0.5 0.5 -0.75
0.75 0.5 -0.75
0.5 0.75 -0.75
0.75 0.75 -0.75
0.75 0.5 -1
1 0.5 -1
0.75 0.75 -1
1 0.75 -1
0.75 0.5 -0.75
1 0.5 -0.75
0.75 0.75 -0.75
1 0.75 -0.75
0.75 0.75 -1
1 0.75 -1
0.75 1 -1
1 1 -1
0.75 0.75 -0.75
1 0.75 -0.75
0.75 1 -0.75
1 1 -0.75
0.5 0.75 -1
0.75 0.75 -1
0.5 1 -1
0.75 1 -1
0.5 0.75 -0.75
0.75 0.75 -0.75
0.5 1 -0.75
0.75 1 -0.75
0.5 0.5 -0.75
0.75 0.5 -0.75
0.5 0.75 -0.75
0.75 0.75 -0.75
0.5 0.5 -0.5
0.75 0.5 -0.5
0.5 0.75 -0.5
0.75 0.75 -0.5
0.75 0.5 -0.75
1 0.5 -0.75
0.75 0.75 -0.75
1 0.75 -0.75
0.75 0.5 -0.5
1 0.5 -0.5
0.75 0.75 -0.5
1 0.75 -0.5
0.75 0.75 -0.75
1 0.75 -0.75
0.75 1 -0.75
1 1 -0.75
0.75 0.75 -0.5
1 0.75 -0.5
0.75 1 -0.5
1 1 -0.5
0.5 0.75 -0.75
0.75 0.75 -0.75
0.5 1 -0.75
0.75 1 -0.75
0.5 0.75 -0.5
0.75 0.75 -0.5
0.5 1 -0.5
0.75 1 -0.5
0 0.5 -1
0.25 0.5 -1
0 0.75 -1
0.25 0.75 -1
0 0.5 -0.75
0.25 0.5 -0.75
0 0.75 -0.75
0.25 0.75 -0.75
0.25 0.5 -1
0.5 0.5 -1
0.25 0.75 -1
0.5 0.75 -1
0.25 0.5 -0.75
0.5 0.5 -0.75
0.25 0.75 -0.75
0.5 0.75 -0.75
0.25 0.75 -1
0.5 0.75 -1
0.25 1 -1
[...]
<CellData Scalars="attribute">
<DataArray type="Int32" Name="attribute" format="ascii">
1
1
1
1
1
1
1
1
1
1
1
1
1
1
1
1
1
1
1
1
1
1
1
1
1
1
1
1
1
1
1
1
1
1
1
1
1
1
1
1
1
1
1
1
1
1
1
1
1
1
1
1
1
1
1
1
1
1
1
1
1
1
1
1
1
1
1
1
1
1
1
1
1
1
1
1
1
1
1
1
1
1
1
1
1
1
1
1
1
1
1
1
1
1
1
1
1
1
1
1
1
1
1
1
1
1
1
1
1
1
1
1
1
1
1
1
1
1
1
1
1
1
1
1
1
1
1
1
1
1
1
1
1
1
1
1
1
1
1
1
1
1
1
1
1
1
1
1
1
1
1
1
1
1
1
1
1
1
1
1
1
1
1
1
1
1
1
1
1
1
1
1
1
1
1
1
1
1
1
1
1
1
1
1
1
1
1
1
1
1
1
1
1
1
1
1
1
1
1
1
1
1
1
1
1
1
1
1
1
1
1
1
1
1
1
1
1
1
1
1
1
1
1
1
1
1
1
1
1
1
1
1
1
1
1
1
1
1
1
1
1
1
1
1
1
1
1
1
1
1
1
1
1
1
1
1
1
1
1
1
1
1
1
1
1
1
1
1
1
1
1
1
1
1
1
1
1
1
1
1
1
1
1
1
1
1
1
1
1
1
1
1
1
1
1
1
1
1
1
1
1
1
1
1
1
1
1
1
1
1
1
1
1
1
1
1
1
1
1
1
1
1
1
1
1
1
1
1
1
1
1
1
1
1
1
1
1
1
1
1
1
1
1
1
1
1
1
1
1
1
1
1
1
1
1
1
1
1
1
1
1
1
1
1
1
1
1
1
1
1
1
1
1
1
1
1
1
1
1
1
1
1
1
1
1
1
1
1
1
1
1
1
1
1
1
1
1
1
1
1
1
1
1
1
1
1
1
1
1
1
1
1
1
1
1
1
1
1
1
1
1
1
1
1
1
1
1
1
1
1
1
1
1
1
1
1
1
1
1
1
1
1
1
1
1
1
1
1
</DataArray>
</CellData>
<PointData >
<DataArray type="Float64" Name="e_field" NumberOfComponents="3" ComponentName0="0" ComponentName1="1" ComponentName2="2" format="ascii" >
-8.97931843e-11 -8.97931843e-11 0 
-8.97931843e-11 -8.97931843e-11 0.707106781 
-0.707106781 -8.97931843e-11 0 
-0.707106781 -8.97931843e-11 0.709103215 
-8.97931843e-11 -0.707106781 0 
-8.97931843e-11 -0.70889273 0.707106781 
-0.709220456 -0.707106781 0 
-0.709220456 -0.70889273 0.709103215 
-8.97931843e-11 -8.97931843e-11 0.707106781 
-8.97931843e-11 -8.97931843e-11 1 
-0.707106781 -8.97931843e-11 0.709103215 
-0.707106781 -8.97931843e-11 1.00283869 
-8.97931843e-11 -0.70889273 0.707106781 
-8.97931843e-11 -0.709344655 1 
-0.709185829 -0.70889273 0.709103215 
-0.709185829 -0.709344655 1.00283869 
-0.707106781 -8.97931843e-11 0.709103215 
-0.707106781 -8.97931843e-11 1.00283869 
-1 -8.97931843e-11 0.709932093 
-1 -8.97931843e-11 1.00398716 
-0.709185829 -0.708916784 0.709103215 
-0.709185829 -0.709412781 1.00283869 
-1.00305554 -0.708916784 0.709932093 
-1.00305554 -0.709412781 1.00398716 
-0.707106781 -8.97931843e-11 0 
-0.707106781 -8.97931843e-11 0.709103215 
-1 -8.97931843e-11 0 
-1 -8.97931843e-11 0.709932093 
-0.709220456 -0.707106781 0 
-0.709220456 -0.708916784 0.709103215 
-1.00311173 -0.707106781 0 
-1.00311173 -0.708916784 0.709932093 
-8.97931843e-11 -0.707106781 0 
-8.97931843e-11 -0.70889273 0.707106781 
-0.709220456 -0.707106781 0 
-0.709220456 -0.70889273 0.709105029 
-8.97931843e-11 -1 0 
-8.97931843e-11 -1.00247449 0.707106781 
-0.710149757 -1 0 
-0.710149757 -1.00247449 0.709105029 
-8.97931843e-11 -0.70889273 0.707106781 
-8.97931843e-11 -0.709344655 1 
-0.709185829 -0.70889273 0.709105029 
-0.709185829 -0.709344655 1.00276851 
-8.97931843e-11 -1.00247449 0.707106781 
-8.97931843e-11 -1.00316327 1 
-0.710155708 -1.00247449 0.709105029 
-0.710155708 -1.00316327 1.00276851 
-0.709185829 -0.708916784 0.709105029 
-0.709185829 -0.709412781 1.00276851 
-1.00305554 -0.708916784 0.709910521 
-1.00305554 -0.709412781 1.00399604 
-0.710155708 -1.00254286 0.709105029 
-0.710155708 -1.00314444 1.00276851 
-1.00438289 -1.00254286 0.709910521 
-1.00438289 -1.00314444 1.00399604 
-0.709220456 -0.707106781 0 
-0.709220456 -0.708916784 0.709105029 
-1.00311173 -0.707106781 0 
-1.00311173 -0.708916784 0.709910521 
-0.710149757 -1 0 
-0.710149757 -1.00254286 0.709105029 
-1.00453118 -1 0 
-1.00453118 -1.00254286 0.709910521 
-8.97931843e-11 -8.97931843e-11 1 
-8.97931843e-11 -8.97931843e-11 0.707106781 
-0.707106781 -8.97931843e-11 1.00283869 
-0.707106781 -8.97931843e-11 0.709102156 
-8.97931843e-11 -0.709344655 1 
-8.97931843e-11 -0.708894504 0.707106781 
-0.70919095 -0.709344655 1.00283869 
-0.70919095 -0.708894504 0.709102156 
-8.97931843e-11 -8.97931843e-11 0.707106781 
-8.97931843e-11 -8.97931843e-11 8.97931843e-11 
-0.707106781 -8.97931843e-11 0.709102156 
-0.707106781 -8.97931843e-11 8.97931843e-11 
-8.97931843e-11 -0.708894504 0.707106781 
-8.97931843e-11 -0.707106781 8.97931843e-11 
-0.709155508 -0.708894504 0.709102156 
-0.709155508 -0.707106781 8.97931843e-11 
-0.707106781 -8.97931843e-11 0.709102156 
-0.707106781 -8.97931843e-11 8.97931843e-11 
-1 -8.97931843e-11 0.709934768 
-1 -8.97931843e-11 8.97931843e-11 
-0.709155508 -0.708908166 0.709102156 
-0.709155508 -0.707106781 8.97931843e-11 
-1.00292332 -0.708908166 0.709934768 
-1.00292332 -0.707106781 8.97931843e-11 
-0.707106781 -8.97931843e-11 1.00283869 
-0.707106781 -8.97931843e-11 0.709102156 
-1 -8.97931843e-11 1.00398716 
-1 -8.97931843e-11 0.709934768 
-0.70919095 -0.709412781 1.00283869 
-0.70919095 -0.708908166 0.709102156 
-1.00295863 -0.709412781 1.00398716 
-1.00295863 -0.708908166 0.709934768 
-8.97931843e-11 -0.709344655 1 
-8.97931843e-11 -0.708894504 0.707106781 
-0.70919095 -0.709344655 1.00276851 
-0.70919095 -0.708894504 0.70910226 
-8.97931843e-11 -1.00316327 1 
-8.97931843e-11 -1.00248848 0.707106781 
-0.710026443 -1.00316327 1.00276851 
-0.710026443 -1.00248848 0.70910226 
-8.97931843e-11 -0.708894504 0.707106781 
-8.97931843e-11 -0.707106781 8.97931843e-11 
-0.709155508 -0.708894504 0.70910226 
-0.709155508 -0.707106781 8.97931843e-11 
-8.97931843e-11 -1.00248848 0.707106781 
-8.97931843e-11 -1 8.97931843e-11 
-0.710028047 -1.00248848 0.70910226 
-0.710028047 -1 8.97931843e-11 
-0.709155508 -0.708908166 0.70910226 
-0.709155508 -0.707106781 8.97931843e-11 
-1.00292332 -0.708908166 0.709901962 
-1.00292332 -0.707106781 8.97931843e-11 
-0.710028047 -1.00254467 0.70910226 
-0.710028047 -1 8.97931843e-11 
-1.0041465 -1.00254467 0.709901962 
-1.0041465 -1 8.97931843e-11 
-0.70919095 -0.709412781 1.00276851 
-0.70919095 -0.708908166 0.70910226 
-1.00295863 -0.709412781 1.00399604 
-1.00295863 -0.708908166 0.709901962 
-0.710026443 -1.00314444 1.00276851 
-0.710026443 -1.00254467 0.70910226 
-1.00427946 -1.00314444 1.00399604 
-1.00427946 -1.00254467 0.709901962 
-1 -8.97931843e-11 1.00398716 
-1 -8.97931843e-11 0.709934768 
-0.707106781 -8.97931843e-11 1.00447183 
-0.707106781 -8.97931843e-11 0.710275658 
-1.00295863 -0.709481324 1.00398716 
-1.00295863 -0.70893917 0.709934768 
-0.709284055 -0.709481324 1.00447183 
-0.709284055 -0.70893917 0.710275658 
-1 -8.97931843e-11 0.709934768 
-1 -8.97931843e-11 8.97931843e-11 
-0.707106781 -8.97931843e-11 0.710275658 
-0.707106781 -8.97931843e-11 8.97931843e-11 
-1.00292332 -0.70893917 0.709934768 
-1.00292332 -0.707106781 8.97931843e-11 
-0.709238341 -0.70893917 0.710275658 
-0.709238341 -0.707106781 8.97931843e-11 
-0.707106781 -8.97931843e-11 0.710275658 
-0.707106781 -8.97931843e-11 8.97931843e-11 
0 -8.97931843e-11 0.710367885 
0 -8.97931843e-11 8.97931843e-11 
-0.709238341 -0.709005332 0.710275658 
-0.709238341 -0.707106781 8.97931843e-11 
-0.000130674667 -0.709005332 0.710367885 
-0.000130674667 -0.707106781 8.97931843e-11 
-0.707106781 -8.97931843e-11 1.00447183 
-0.707106781 -8.97931843e-11 0.710275658 
0 -8.97931843e-11 1.00464731 
0 -8.97931843e-11 0.710367885 
-0.709284055 -0.709608885 1.00447183 
-0.709284055 -0.709005332 0.710275658 
-0.000219933809 -0.709608885 1.00464731 
-0.000219933809 -0.709005332 0.710367885 
-1.00295863 -0.709481324 1.00399604 
-1.00295863 -0.70893917 0.709901962 
-0.709284055 -0.709481324 1.00446469 
-0.709284055 -0.70893917 0.710242671 
-1.00427946 -1.00334119 1.00399604 
-1.00427946 -1.00256411 0.709901962 
-0.710277696 -1.00334119 1.00446469 
-0.710277696 -1.00256411 0.710242671 
-1.00292332 -0.70893917 0.709901962 
-1.00292332 -0.707106781 8.97931843e-11 
-0.709238341 -0.70893917 0.710242671 
-0.709238341 -0.707106781 8.97931843e-11 
-1.0041465 -1.00256411 0.709901962 
-1.0041465 -1 8.97931843e-11 
-0.710148095 -1.00256411 0.710242671 
-0.710148095 -1 8.97931843e-11 
-0.709238341 -0.709005332 0.710242671 
-0.709238341 -0.707106781 8.97931843e-11 
-0.000130674667 -0.709005332 0.710353874 
-0.000130674667 -0.707106781 8.97931843e-11 
-0.710148095 -1.00265995 0.710242671 
-0.710148095 -1 8.97931843e-11 
-0.000226865352 -1.00265995 0.710353874 
-0.000226865352 -1 8.97931843e-11 
-0.709284055 -0.709608885 1.00446469 
-0.709284055 -0.709005332 0.710242671 
-0.000219933809 -0.709608885 1.00460813 
-0.000219933809 -0.709005332 0.710353874 
-0.710277696 -1.0035542 1.00446469 
-0.710277696 -1.00265995 0.710242671 
-0.000366207736 -1.0035542 1.00460813 
-0.000366207736 -1.00265995 0.710353874 
-1 -8.97931843e-11 0 
-1 -8.97931843e-11 0.709932093 
-0.707106781 -8.97931843e-11 0 
-0.707106781 -8.97931843e-11 0.710288252 
-1.00311173 -0.707106781 0 
-1.00311173 -0.708983891 0.709932093 
-0.709739373 -0.707106781 0 
-0.709739373 -0.708983891 0.710288252 
-1 -8.97931843e-11 0.709932093 
-1 -8.97931843e-11 1.00398716 
-0.707106781 -8.97931843e-11 0.710288252 
-0.707106781 -8.97931843e-11 1.00447183 
-1.00305554 -0.708983891 0.709932093 
-1.00305554 -0.709481324 1.00398716 
-0.70956243 -0.708983891 0.710288252 
-0.70956243 -0.709481324 1.00447183 
-0.707106781 -8.97931843e-11 0.710288252 
-0.707106781 -8.97931843e-11 1.00447183 
0 -8.97931843e-11 0.710491105 
0 -8.97931843e-11 1.00464731 
-0.70956243 -0.709528434 0.710288252 
-0.70956243 -0.709608885 1.00447183 
-0.000432496767 -0.709528434 0.710491105 
-0.000432496767 -0.709608885 1.00464731 
-0.707106781 -8.97931843e-11 0 
-0.707106781 -8.97931843e-11 0.710288252 
0 -8.97931843e-11 0 
0 -8.97931843e-11 0.710491105 
-0.709739373 -0.707106781 0 
-0.709739373 -0.709528434 0.710288252 
-0.00192064186 -0.707106781 0 
-0.00192064186 -0.709528434 0.710491105 
-1.00311173 -0.707106781 0 
-1.00311173 -0.708983891 0.709910521 
-0.709739373 -0.707106781 0 
-0.709739373 -0.708983891 0.710252844 
-1.00453118 -1 0 
-1.00453118 -1.00263828 0.709910521 
-0.711018483 -1 0 
-0.711018483 -1.00263828 0.710252844 
-1.00305554 -0.708983891 0.709910521 
-1.00305554 -0.709481324 1.00399604 
-0.70956243 -0.708983891 0.710252844 
-0.70956243 -0.709481324 1.00446469 
-1.00438289 -1.00263828 0.709910521 
-1.00438289 -1.00334119 1.00399604 
-0.710682161 -1.00263828 0.710252844 
-0.710682161 -1.00334119 1.00446469 
-0.70956243 -0.709528434 0.710252844 
-0.70956243 -0.709608885 1.00446469 
-0.000432496767 -0.709528434 0.710461294 
-0.000432496767 -0.709608885 1.00460813 
-0.710682161 -1.00344726 0.710252844 
-0.710682161 -1.0035542 1.00446469 
-0.000735964036 -1.00344726 0.710461294 
-0.000735964036 -1.0035542 1.00460813 
-0.709739373 -0.707106781 0 
-0.709739373 -0.709528434 0.710252844 
-0.00192064186 -0.707106781 0 
-0.00192064186 -0.709528434 0.710461294 
-0.711018483 -1 0 
-0.711018483 -1.00344726 0.710252844 
-0.00298031535 -1 0 
-0.00298031535 -1.00344726 0.710461294 
-8.97931843e-11 -1 0 
-8.97931843e-11 -1.00247449 0.707106781 
-0.710149757 -1 0 
-0.710149757 -1.00247449 0.709031966 
-8.97931843e-11 -0.707106781 0 
-8.97931843e-11 -0.708720736 0.707106781 
-0.710652182 -0.707106781 0 
-0.710652182 -0.708720736 0.709031966 
-8.97931843e-11 -1.00247449 0.707106781 
-8.97931843e-11 -1.00316327 1 
-0.710155708 -1.00247449 0.709031966 
-0.710155708 -1.00316327 1.00283288 
-8.97931843e-11 -0.708720736 0.707106781 
-8.97931843e-11 -0.709099057 1 
-0.71048315 -0.708720736 0.709031966 
-0.71048315 -0.709099057 1.00283288 
-0.710155708 -1.00254286 0.709031966 
-0.710155708 -1.00314444 1.00283288 
-1.00438289 -1.00254286 0.709887709 
-1.00438289 -1.00314444 1.00385077 
-0.71048315 -0.70871053 0.709031966 
-0.71048315 -0.70926732 1.00283288 
-1.00508046 -0.70871053 0.709887709 
-1.00508046 -0.70926732 1.00385077 
-0.710149757 -1 0 
-0.710149757 -1.00254286 0.709031966 
-1.00453118 -1 0 
-1.00453118 -1.00254286 0.709887709 
-0.710652182 -0.707106781 0 
-0.710652182 -0.70871053 0.709031966 
-1.00521165 -0.707106781 0 
-1.00521165 -0.70871053 0.709887709 
-8.97931843e-11 -0.707106781 0 
-8.97931843e-11 -0.708720736 0.707106781 
-0.710652182 -0.707106781 0 
-0.710652182 -0.708720736 0.708864951 
-8.97931843e-11 0 0 
-8.97931843e-11 0.000845033922 0.707106781 
-0.711181354 0 0 
-0.711181354 0.000845033922 0.708864951 
-8.97931843e-11 -0.708720736 0.707106781 
-8.97931843e-11 -0.709099057 1 
-0.71048315 -0.708720736 0.708864951 
-0.71048315 -0.709099057 1.00264748 
-8.97931843e-11 0.000845033922 0.707106781 
-8.97931843e-11 0.000485378062 1 
-0.710608199 0.000845033922 0.708864951 
-0.710608199 0.000485378062 1.00264748 
-0.71048315 -0.70871053 0.708864951 
-0.71048315 -0.70926732 1.00264748 
-1.00508046 -0.70871053 0.709414776 
-1.00508046 -0.70926732 1.0039316 
-0.710608199 0.000706036414 0.708864951 
-0.710608199 0.000577187539 1.00264748 
-1.00488728 0.000706036414 0.709414776 
-1.00488728 0.000577187539 1.0039316 
-0.710652182 -0.707106781 0 
-0.710652182 -0.70871053 0.708864951 
-1.00521165 -0.707106781 0 
-1.00521165 -0.70871053 0.709414776 
-0.711181354 0 0 
-0.711181354 0.000706036414 0.708864951 
-1.00612406 0 0 
-1.00612406 0.000706036414 0.709414776 
-8.97931843e-11 -1.00316327 1 
-8.97931843e-11 -1.00248848 0.707106781 
-0.710026443 -1.00316327 1.00283288 
-0.710026443 -1.00248848 0.709067085 
-8.97931843e-11 -0.709099057 1 
-8.97931843e-11 -0.708784624 0.707106781 
-0.710450747 -0.709099057 1.00283288 
-0.710450747 -0.708784624 0.709067085 
-8.97931843e-11 -1.00248848 0.707106781 
-8.97931843e-11 -1 8.97931843e-11 
-0.710028047 -1.00248848 0.709067085 
-0.710028047 -1 8.97931843e-11 
-8.97931843e-11 -0.708784624 0.707106781 
-8.97931843e-11 -0.707106781 8.97931843e-11 
-0.710354611 -0.708784624 0.709067085 
-0.710354611 -0.707106781 8.97931843e-11 
-0.710028047 -1.00254467 0.709067085 
-0.710028047 -1 8.97931843e-11 
-1.0041465 -1.00254467 0.709930265 
-1.0041465 -1 8.97931843e-11 
-0.710354611 -0.708779753 0.709067085 
-0.710354611 -0.707106781 8.97931843e-11 
-1.00466954 -0.708779753 0.709930265 
-1.00466954 -0.707106781 8.97931843e-11 
-0.710026443 -1.00314444 1.00283288 
-0.710026443 -1.00254467 0.709067085 
-1.00427946 -1.00314444 1.00385077 
-1.00427946 -1.00254467 0.709930265 
-0.710450747 -0.70926732 1.00283288 
-0.710450747 -0.708779753 0.709067085 
-1.00468571 -0.70926732 1.00385077 
-1.00468571 -0.708779753 0.709930265 
-8.97931843e-11 -0.709099057 1 
-8.97931843e-11 -0.708784624 0.707106781 
-0.710450747 -0.709099057 1.00264748 
-0.710450747 -0.708784624 0.709085147 
-8.97931843e-11 0.000485378062 1 
-8.97931843e-11 0.000256292193 0.707106781 
-0.710425844 0.000485378062 1.00264748 
-0.710425844 0.000256292193 0.709085147 
-8.97931843e-11 -0.708784624 0.707106781 
-8.97931843e-11 -0.707106781 8.97931843e-11 
-0.710354611 -0.708784624 0.709085147 
-0.710354611 -0.707106781 8.97931843e-11 
-8.97931843e-11 0.000256292193 0.707106781 
-8.97931843e-11 0 8.97931843e-11 
-0.710452041 0.000256292193 0.709085147 
-0.710452041 0 8.97931843e-11 
-0.710354611 -0.708779753 0.709085147 
-0.710354611 -0.707106781 8.97931843e-11 
-1.00466954 -0.708779753 0.709822396 
-1.00466954 -0.707106781 8.97931843e-11 
-0.710452041 0.000180847583 0.709085147 
-0.710452041 0 8.97931843e-11 
-1.00473073 0.000180847583 0.709822396 
-1.00473073 0 8.97931843e-11 
-0.710450747 -0.70926732 1.00264748 
-0.710450747 -0.708779753 0.709085147 
-1.00468571 -0.70926732 1.0039316 
-1.00468571 -0.708779753 0.709822396 
-0.710425844 0.000577187539 1.00264748 
-0.710425844 0.000180847583 0.709085147 
-1.00492069 0.000577187539 1.0039316 
-1.00492069 0.000180847583 0.709822396 
-1.00427946 -1.00334119 1.00385077 
-1.00427946 -1.00256411 0.709930265 
-0.710277696 -1.00334119 1.0043912 
-0.710277696 -1.00256411 0.710219763 
-1.00468571 -0.709275369 1.00385077 
-1.00468571 -0.708890154 0.709930265 
-0.710667812 -0.709275369 1.0043912 
-0.710667812 -0.708890154 0.710219763 
-1.0041465 -1.00256411 0.709930265 
-1.0041465 -1 8.97931843e-11 
-0.710148095 -1.00256411 0.710219763 
-0.710148095 -1 8.97931843e-11 
-1.00466954 -0.708890154 0.709930265 
-1.00466954 -0.707106781 8.97931843e-11 
-0.710506099 -0.708890154 0.710219763 
-0.710506099 -0.707106781 8.97931843e-11 
-0.710148095 -1.00265995 0.710219763 
-0.710148095 -1 8.97931843e-11 
-0.000226865352 -1.00265995 0.710339438 
-0.000226865352 -1 8.97931843e-11 
-0.710506099 -0.708932995 0.710219763 
-0.710506099 -0.707106781 8.97931843e-11 
-0.000279224188 -0.708932995 0.710339438 
-0.000279224188 -0.707106781 8.97931843e-11 
-0.710277696 -1.0035542 1.0043912 
-0.710277696 -1.00265995 0.710219763 
-0.000366207736 -1.0035542 1.00453653 
-0.000366207736 -1.00265995 0.710339438 
-0.710667812 -0.709578631 1.0043912 
-0.710667812 -0.708932995 0.710219763 
-0.000390635643 -0.709578631 1.00453653 
-0.000390635643 -0.708932995 0.710339438 
-1.00468571 -0.709275369 1.0039316 
-1.00468571 -0.708890154 0.709822396 
-0.710667812 -0.709275369 1.00424066 
-0.710667812 -0.708890154 0.710211019 
-1.00492069 0.000279933699 1.0039316 
-1.00492069 0.000211283351 0.709822396 
-0.710641349 0.000279933699 1.00424066 
-0.710641349 0.000211283351 0.710211019 
-1.00466954 -0.708890154 0.709822396 
-1.00466954 -0.707106781 8.97931843e-11 
-0.710506099 -0.708890154 0.710211019 
-0.710506099 -0.707106781 8.97931843e-11 
-1.00473073 0.000211283351 0.709822396 
-1.00473073 0 8.97931843e-11 
-0.71059301 0.000211283351 0.710211019 
-0.71059301 0 8.97931843e-11 
-0.710506099 -0.708932995 0.710211019 
-0.710506099 -0.707106781 8.97931843e-11 
-0.000279224188 -0.708932995 0.710245103 
-0.000279224188 -0.707106781 8.97931843e-11 
-0.71059301 5.16765924e-05 0.710211019 
-0.71059301 0 8.97931843e-11 
-0.00021313486 5.16765924e-05 0.710245103 
-0.00021313486 0 8.97931843e-11 
-0.710667812 -0.709578631 1.00424066 
-0.710667812 -0.708932995 0.710211019 
-0.000390635643 -0.709578631 1.00447976 
-0.000390635643 -0.708932995 0.710245103 
-0.710641349 0.000244220803 1.00424066 
-0.710641349 5.16765924e-05 0.710211019 
-0.000406846947 0.000244220803 1.00447976 
-0.000406846947 5.16765924e-05 0.710245103 
-1.00453118 -1 0 
-1.00453118 -1.00263828 0.709887709 
-0.711018483 -1 0 
-0.711018483 -1.00263828 0.710175399 
-1.00521165 -0.707106781 0 
-1.00521165 -0.708911466 0.709887709 
-0.711603647 -0.707106781 0 
-0.711603647 -0.708911466 0.710175399 
-1.00438289 -1.00263828 0.709887709 
-1.00438289 -1.00334119 1.00385077 
-0.710682161 -1.00263828 0.710175399 
-0.710682161 -1.00334119 1.0043912 
-1.00508046 -0.708911466 0.709887709 
-1.00508046 -0.709275369 1.00385077 
-0.711122843 -0.708911466 0.710175399 
-0.711122843 -0.709275369 1.0043912 
-0.710682161 -1.00344726 0.710175399 
-0.710682161 -1.0035542 1.0043912 
-0.000735964036 -1.00344726 0.710392198 
-0.000735964036 -1.0035542 1.00453653 
-0.711122843 -0.709571998 0.710175399 
-0.711122843 -0.709578631 1.0043912 
-0.000868127166 -0.709571998 0.710392198 
-0.000868127166 -0.709578631 1.00453653 
-0.711018483 -1 0 
-0.711018483 -1.00344726 0.710175399 
-0.00298031535 -1 0 
-0.00298031535 -1.00344726 0.710392198 
-0.711603647 -0.707106781 0 
-0.711603647 -0.709571998 0.710175399 
-0.0028893745 -0.707106781 0 
-0.0028893745 -0.709571998 0.710392198 
-1.00521165 -0.707106781 0 
-1.00521165 -0.708911466 0.709414776 
-0.711603647 -0.707106781 0 
-0.711603647 -0.708911466 0.70982935 
-1.00612406 0 0 
-1.00612406 0.000729649297 0.709414776 
-0.712231456 0 0 
-0.712231456 0.000729649297 0.70982935 
-1.00508046 -0.708911466 0.709414776 
-1.00508046 -0.709275369 1.0039316 
-0.711122843 -0.708911466 0.70982935 
-0.711122843 -0.709275369 1.00424066 
-1.00488728 0.000729649297 0.709414776 
-1.00488728 0.000279933699 1.0039316 
-0.71104245 0.000729649297 0.70982935 
-0.71104245 0.000279933699 1.00424066 
-0.711122843 -0.709571998 0.70982935 
-0.711122843 -0.709578631 1.00424066 
-0.000868127166 -0.709571998 0.710030455 
-0.000868127166 -0.709578631 1.00447976 
-0.71104245 0.000195248194 0.70982935 
-0.71104245 0.000244220803 1.00424066 
-0.00061237759 0.000195248194 0.710030455 
-0.00061237759 0.000244220803 1.00447976 
-0.711603647 -0.707106781 0 
-0.711603647 -0.709571998 0.70982935 
-0.0028893745 -0.707106781 0 
-0.0028893745 -0.709571998 0.710030455 
-0.712231456 0 0 
-0.712231456 0.000195248194 0.70982935 
-0.00247951936 0 0 
-0.00247951936 0.000195248194 0.710030455 
0 -8.97931843e-11 0 