<VTKFile type="UnstructuredGrid" version="0.1" byte_order="LittleEndian">
<UnstructuredGrid>
<Piece NumberOfPoints="3584" NumberOfCells="448">
<Points>
<DataArray type="Float64" NumberOfComponents="3" format="ascii">
0 -1 -1
0.25 -1 -1
0 -0.75 -1
0.25 -0.75 -1
0 -1 -0.75
0.25 -1 -0.75
0 -0.75 -0.75
0.25 -0.75 -0.75
0.25 -1 -1
0.5 -1 -1
0.25 -0.75 -1
0.5 -0.75 -1
0.25 -1 -0.75
0.5 -1 -0.75
0.25 -0.75 -0.75
0.5 -0.75 -0.75
0.25 -0.75 -1
0.5 -0.75 -1
0.25 -0.5 -1
0.5 -0.5 -1
0.25 -0.75 -0.75
0.5 -0.75 -0.75
0.25 -0.5 -0.75
0.5 -0.5 -0.75
0 -0.75 -1
0.25 -0.75 -1
0 -0.5 -1
0.25 -0.5 -1
0 -0.75 -0.75
0.25 -0.75 -0.75
0 -0.5 -0.75
0.25 -0.5 -0.75
0 -1 -0.75
0.25 -1 -0.75
0 -0.75 -0.75
0.25 -0.75 -0.75
0 -1 -0.5
0.25 -1 -0.5
0 -0.75 -0.5
0.25 -0.75 -0.5
0.25 -1 -0.75
0.5 -1 -0.75
0.25 -0.75 -0.75
0.5 -0.75 -0.75
0.25 -1 -0.5
0.5 -1 -0.5
0.25 -0.75 -0.5
0.5 -0.75 -0.5
0.25 -0.75 -0.75
0.5 -0.75 -0.75
0.25 -0.5 -0.75
0.5 -0.5 -0.75
0.25 -0.75 -0.5
0.5 -0.75 -0.5
0.25 -0.5 -0.5
0.5 -0.5 -0.5
0 -0.75 -0.75
0.25 -0.75 -0.75
0 -0.5 -0.75
0.25 -0.5 -0.75
0 -0.75 -0.5
0.25 -0.75 -0.5
0 -0.5 -0.5
0.25 -0.5 -0.5
0.5 -1 -1
0.75 -1 -1
0.5 -0.75 -1
0.75 -0.75 -1
0.5 -1 -0.75
0.75 -1 -0.75
0.5 -0.75 -0.75
0.75 -0.75 -0.75
0.75 -1 -1
1 -1 -1
0.75 -0.75 -1
1 -0.75 -1
0.75 -1 -0.75
1 -1 -0.75
0.75 -0.75 -0.75
1 -0.75 -0.75
0.75 -0.75 -1
1 -0.75 -1
0.75 -0.5 -1
1 -0.5 -1
0.75 -0.75 -0.75
1 -0.75 -0.75
0.75 -0.5 -0.75
1 -0.5 -0.75
0.5 -0.75 -1
0.75 -0.75 -1
0.5 -0.5 -1
0.75 -0.5 -1
0.5 -0.75 -0.75
0.75 -0.75 -0.75
0.5 -0.5 -0.75
0.75 -0.5 -0.75
0.5 -1 -0.75
0.75 -1 -0.75
0.5 -0.75 -0.75
0.75 -0.75 -0.75
0.5 -1 -0.5
0.75 -1 -0.5
0.5 -0.75 -0.5
0.75 -0.75 -0.5
0.75 -1 -0.75
1 -1 -0.75
0.75 -0.75 -0.75
1 -0.75 -0.75
0.75 -1 -0.5
1 -1 -0.5
0.75 -0.75 -0.5
1 -0.75 -0.5
0.75 -0.75 -0.75
1 -0.75 -0.75
0.75 -0.5 -0.75
1 -0.5 -0.75
0.75 -0.75 -0.5
1 -0.75 -0.5
0.75 -0.5 -0.5
1 -0.5 -0.5
0.5 -0.75 -0.75
0.75 -0.75 -0.75
0.5 -0.5 -0.75
0.75 -0.5 -0.75
0.5 -0.75 -0.5
0.75 -0.75 -0.5
0.5 -0.5 -0.5
0.75 -0.5 -0.5
0.5 -0.5 -1
0.75 -0.5 -1
0.5 -0.25 -1
0.75 -0.25 -1
0.5 -0.5 -0.75
0.75 -0.5 -0.75
0.5 -0.25 -0.75
0.75 -0.25 -0.75
0.75 -0.5 -1
1 -0.5 -1
0.75 -0.25 -1
1 -0.25 -1
0.75 -0.5 -0.75
1 -0.5 -0.75
0.75 -0.25 -0.75
1 -0.25 -0.75
0.75 -0.25 -1
1 -0.25 -1
0.75 0 -1
1 0 -1
0.75 -0.25 -0.75
1 -0.25 -0.75
0.75 0 -0.75
1 0 -0.75
0.5 -0.25 -1
0.75 -0.25 -1
0.5 0 -1
0.75 0 -1
0.5 -0.25 -0.75
0.75 -0.25 -0.75
0.5 0 -0.75
0.75 0 -0.75
0.5 -0.5 -0.75
0.75 -0.5 -0.75
0.5 -0.25 -0.75
0.75 -0.25 -0.75
0.5 -0.5 -0.5
0.75 -0.5 -0.5
0.5 -0.25 -0.5
0.75 -0.25 -0.5
0.75 -0.5 -0.75
1 -0.5 -0.75
0.75 -0.25 -0.75
1 -0.25 -0.75
0.75 -0.5 -0.5
1 -0.5 -0.5
0.75 -0.25 -0.5
1 -0.25 -0.5
0.75 -0.25 -0.75
1 -0.25 -0.75
0.75 0 -0.75
1 0 -0.75
0.75 -0.25 -0.5
1 -0.25 -0.5
0.75 0 -0.5
1 0 -0.5
0.5 -0.25 -0.75
0.75 -0.25 -0.75
0.5 0 -0.75
0.75 0 -0.75
0.5 -0.25 -0.5
0.75 -0.25 -0.5
0.5 0 -0.5
0.75 0 -0.5
0 -0.5 -1
0.25 -0.5 -1
0 -0.25 -1
0.25 -0.25 -1
0 -0.5 -0.75
0.25 -0.5 -0.75
0 -0.25 -0.75
0.25 -0.25 -0.75
0.25 -0.5 -1
0.5 -0.5 -1
0.25 -0.25 -1
0.5 -0.25 -1
0.25 -0.5 -0.75
0.5 -0.5 -0.75
0.25 -0.25 -0.75
0.5 -0.25 -0.75
0.25 -0.25 -1
0.5 -0.25 -1
0.25 0 -1
0.5 0 -1
0.25 -0.25 -0.75
0.5 -0.25 -0.75
0.25 0 -0.75
0.5 0 -0.75
0 -0.25 -1
0.25 -0.25 -1
0 0 -1
0.25 0 -1
0 -0.25 -0.75
0.25 -0.25 -0.75
0 0 -0.75
0.25 0 -0.75
0 -0.5 -0.75
0.25 -0.5 -0.75
0 -0.25 -0.75
0.25 -0.25 -0.75
0 -0.5 -0.5
0.25 -0.5 -0.5
0 -0.25 -0.5
0.25 -0.25 -0.5
0.25 -0.5 -0.75
0.5 -0.5 -0.75
0.25 -0.25 -0.75
0.5 -0.25 -0.75
0.25 -0.5 -0.5
0.5 -0.5 -0.5
0.25 -0.25 -0.5
0.5 -0.25 -0.5
0.25 -0.25 -0.75
0.5 -0.25 -0.75
0.25 0 -0.75
0.5 0 -0.75
0.25 -0.25 -0.5
0.5 -0.25 -0.5
0.25 0 -0.5
0.5 0 -0.5
0 -0.25 -0.75
0.25 -0.25 -0.75
0 0 -0.75
0.25 0 -0.75
0 -0.25 -0.5
0.25 -0.25 -0.5
0 0 -0.5
0.25 0 -0.5
0 -1 -0.5
0.25 -1 -0.5
0 -0.75 -0.5
0.25 -0.75 -0.5
0 -1 -0.25
0.25 -1 -0.25
0 -0.75 -0.25
0.25 -0.75 -0.25
0.25 -1 -0.5
0.5 -1 -0.5
0.25 -0.75 -0.5
0.5 -0.75 -0.5
0.25 -1 -0.25
0.5 -1 -0.25
0.25 -0.75 -0.25
0.5 -0.75 -0.25
0.25 -0.75 -0.5
0.5 -0.75 -0.5
0.25 -0.5 -0.5
0.5 -0.5 -0.5
0.25 -0.75 -0.25
0.5 -0.75 -0.25
0.25 -0.5 -0.25
0.5 -0.5 -0.25
0 -0.75 -0.5
0.25 -0.75 -0.5
0 -0.5 -0.5
0.25 -0.5 -0.5
0 -0.75 -0.25
0.25 -0.75 -0.25
0 -0.5 -0.25
0.25 -0.5 -0.25
0 -1 -0.25
0.25 -1 -0.25
0 -0.75 -0.25
0.25 -0.75 -0.25
0 -1 0
0.25 -1 0
0 -0.75 0
0.25 -0.75 0
0.25 -1 -0.25
0.5 -1 -0.25
0.25 -0.75 -0.25
0.5 -0.75 -0.25
0.25 -1 0
0.5 -1 0
0.25 -0.75 0
0.5 -0.75 0
0.25 -0.75 -0.25
0.5 -0.75 -0.25
0.25 -0.5 -0.25
0.5 -0.5 -0.25
0.25 -0.75 0
0.5 -0.75 0
0.25 -0.5 0
0.5 -0.5 0
0 -0.75 -0.25
0.25 -0.75 -0.25
0 -0.5 -0.25
0.25 -0.5 -0.25
0 -0.75 0
0.25 -0.75 0
0 -0.5 0
0.25 -0.5 0
0.5 -1 -0.5
0.75 -1 -0.5
0.5 -0.75 -0.5
0.75 -0.75 -0.5
0.5 -1 -0.25
0.75 -1 -0.25
0.5 -0.75 -0.25
0.75 -0.75 -0.25
0.75 -1 -0.5
1 -1 -0.5
0.75 -0.75 -0.5
1 -0.75 -0.5
0.75 -1 -0.25
1 -1 -0.25
0.75 -0.75 -0.25
1 -0.75 -0.25
0.75 -0.75 -0.5
1 -0.75 -0.5
0.75 -0.5 -0.5
1 -0.5 -0.5
0.75 -0.75 -0.25
1 -0.75 -0.25
0.75 -0.5 -0.25
1 -0.5 -0.25
0.5 -0.75 -0.5
0.75 -0.75 -0.5
0.5 -0.5 -0.5
0.75 -0.5 -0.5
0.5 -0.75 -0.25
0.75 -0.75 -0.25
0.5 -0.5 -0.25
0.75 -0.5 -0.25
0.5 -1 -0.25
0.75 -1 -0.25
0.5 -0.75 -0.25
0.75 -0.75 -0.25
0.5 -1 0
0.75 -1 0
0.5 -0.75 0
0.75 -0.75 0
0.75 -1 -0.25
1 -1 -0.25
0.75 -0.75 -0.25
1 -0.75 -0.25
0.75 -1 0
1 -1 0
0.75 -0.75 0
1 -0.75 0
0.75 -0.75 -0.25
1 -0.75 -0.25
0.75 -0.5 -0.25
1 -0.5 -0.25
0.75 -0.75 0
1 -0.75 0
0.75 -0.5 0
1 -0.5 0
0.5 -0.75 -0.25
0.75 -0.75 -0.25
0.5 -0.5 -0.25
0.75 -0.5 -0.25
0.5 -0.75 0
0.75 -0.75 0
0.5 -0.5 0
0.75 -0.5 0
0.5 -0.5 -0.5
0.75 -0.5 -0.5
0.5 -0.25 -0.5
0.75 -0.25 -0.5
0.5 -0.5 -0.25
0.75 -0.5 -0.25
0.5 -0.25 -0.25
0.75 -0.25 -0.25
0.75 -0.5 -0.5
1 -0.5 -0.5
0.75 -0.25 -0.5
1 -0.25 -0.5
0.75 -0.5 -0.25
1 -0.5 -0.25
0.75 -0.25 -0.25
1 -0.25 -0.25
0.75 -0.25 -0.5
1 -0.25 -0.5
0.75 0 -0.5
1 0 -0.5
0.75 -0.25 -0.25
1 -0.25 -0.25
0.75 0 -0.25
1 0 -0.25
0.5 -0.25 -0.5
0.75 -0.25 -0.5
0.5 0 -0.5
0.75 0 -0.5
0.5 -0.25 -0.25
0.75 -0.25 -0.25
0.5 0 -0.25
0.75 0 -0.25
0.5 -0.5 -0.25
0.75 -0.5 -0.25
0.5 -0.25 -0.25
0.75 -0.25 -0.25
0.5 -0.5 0
0.75 -0.5 0
0.5 -0.25 0
0.75 -0.25 0
0.75 -0.5 -0.25
1 -0.5 -0.25
0.75 -0.25 -0.25
1 -0.25 -0.25
0.75 -0.5 0
1 -0.5 0
0.75 -0.25 0
1 -0.25 0
0.75 -0.25 -0.25
1 -0.25 -0.25
0.75 0 -0.25
1 0 -0.25
0.75 -0.25 0
1 -0.25 0
0.75 0 0
1 0 0
0.5 -0.25 -0.25
0.75 -0.25 -0.25
0.5 0 -0.25
0.75 0 -0.25
0.5 -0.25 0
0.75 -0.25 0
0.5 0 0
0.75 0 0
0 -0.5 -0.5
0.25 -0.5 -0.5
0 -0.25 -0.5
0.25 -0.25 -0.5
0 -0.5 -0.25
0.25 -0.5 -0.25
0 -0.25 -0.25
0.25 -0.25 -0.25
0.25 -0.5 -0.5
0.5 -0.5 -0.5
0.25 -0.25 -0.5
0.5 -0.25 -0.5
0.25 -0.5 -0.25
0.5 -0.5 -0.25
0.25 -0.25 -0.25
0.5 -0.25 -0.25
0.25 -0.25 -0.5
0.5 -0.25 -0.5
0.25 0 -0.5
0.5 0 -0.5
0.25 -0.25 -0.25
0.5 -0.25 -0.25
0.25 0 -0.25
0.5 0 -0.25
0 -0.25 -0.5
0.25 -0.25 -0.5
0 0 -0.5
0.25 0 -0.5
0 -0.25 -0.25
0.25 -0.25 -0.25
0 0 -0.25
0.25 0 -0.25
0 -0.5 -0.25
0.25 -0.5 -0.25
0 -0.25 -0.25
0.25 -0.25 -0.25
0 -0.5 0
0.25 -0.5 0
0 -0.25 0
0.25 -0.25 0
0.25 -0.5 -0.25
0.5 -0.5 -0.25
0.25 -0.25 -0.25
0.5 -0.25 -0.25
0.25 -0.5 0
0.5 -0.5 0
0.25 -0.25 0
0.5 -0.25 0
0.25 -0.25 -0.25
0.5 -0.25 -0.25
0.25 0 -0.25
0.5 0 -0.25
0.25 -0.25 0
0.5 -0.25 0
0.25 0 0
0.5 0 0
0 -0.25 -0.25
0.25 -0.25 -0.25
0 0 -0.25
0.25 0 -0.25
0 -0.25 0
0.25 -0.25 0
0 0 0
0.25 0 0
0 0 -1
0.25 0 -1
0 0.25 -1
0.25 0.25 -1
0 0 -0.75
0.25 0 -0.75
0 0.25 -0.75
0.25 0.25 -0.75
0.25 0 -1
0.5 0 -1
0.25 0.25 -1
0.5 0.25 -1
0.25 0 -0.75
0.5 0 -0.75
0.25 0.25 -0.75
0.5 0.25 -0.75
0.25 0.25 -1
0.5 0.25 -1
0.25 0.5 -1
0.5 0.5 -1
0.25 0.25 -0.75
0.5 0.25 -0.75
0.25 0.5 -0.75
0.5 0.5 -0.75
0 0.25 -1
0.25 0.25 -1
0 0.5 -1
0.25 0.5 -1
0 0.25 -0.75
0.25 0.25 -0.75
0 0.5 -0.75
0.25 0.5 -0.75
0 0 -0.75
0.25 0 -0.75
0 0.25 -0.75
0.25 0.25 -0.75
0 0 -0.5
0.25 0 -0.5
0 0.25 -0.5
0.25 0.25 -0.5
0.25 0 -0.75
0.5 0 -0.75
0.25 0.25 -0.75
0.5 0.25 -0.75
0.25 0 -0.5
0.5 0 -0.5
0.25 0.25 -0.5
0.5 0.25 -0.5
0.25 0.25 -0.75
0.5 0.25 -0.75
0.25 0.5 -0.75
0.5 0.5 -0.75
0.25 0.25 -0.5
0.5 0.25 -0.5
0.25 0.5 -0.5
0.5 0.5 -0.5
0 0.25 -0.75
0.25 0.25 -0.75
0 0.5 -0.75
0.25 0.5 -0.75
0 0.25 -0.5
0.25 0.25 -0.5
0 0.5 -0.5
0.25 0.5 -0.5
0.5 0 -1
0.75 0 -1
0.5 0.25 -1
0.75 0.25 -1
0.5 0 -0.75
0.75 0 -0.75
0.5 0.25 -0.75
0.75 0.25 -0.75
0.75 0 -1
1 0 -1
0.75 0.25 -1
1 0.25 -1
0.75 0 -0.75
1 0 -0.75
0.75 0.25 -0.75
1 0.25 -0.75
0.75 0.25 -1
1 0.25 -1
0.75 0.5 -1
1 0.5 -1
0.75 0.25 -0.75
1 0.25 -0.75
0.75 0.5 -0.75
1 0.5 -0.75
0.5 0.25 -1
0.75 0.25 -1
0.5 0.5 -1
0.75 0.5 -1
0.5 0.25 -0.75
0.75 0.25 -0.75
0.5 0.5 -0.75
0.75 0.5 -0.75
0.5 0 -0.75
0.75 0 -0.75
0.5 0.25 -0.75
0.75 0.25 -0.75
0.5 0 -0.5
0.75 0 -0.5
0.5 0.25 -0.5
0.75 0.25 -0.5
0.75 0 -0.75
1 0 -0.75
0.75 0.25 -0.75
1 0.25 -0.75
0.75 0 -0.5
1 0 -0.5
0.75 0.25 -0.5
1 0.25 -0.5
0.75 0.25 -0.75
1 0.25 -0.75
0.75 0.5 -0.75
1 0.5 -0.75
0.75 0.25 -0.5
1 0.25 -0.5
0.75 0.5 -0.5
1 0.5 -0.5
0.5 0.25 -0.75
0.75 0.25 -0.75
0.5 0.5 -0.75
0.75 0.5 -0.75
0.5 0.25 -0.5
0.75 0.25 -0.5
0.5 0.5 -0.5
0.75 0.5 -0.5
0.5 0.5 -1
0.75 0.5 -1
0.5 0.75 -1
0.75 0.75 -1
0.5 0.5 -0.75
0.75 0.5 -0.75
0.5 0.75 -0.75
0.75 0.75 -0.75
0.75 0.5 -1
1 0.5 -1
0.75 0.75 -1
1 0.75 -1
0.75 0.5 -0.75
1 0.5 -0.75
0.75 0.75 -0.75
1 0.75 -0.75
0.75 0.75 -1
1 0.75 -1
0.75 1 -1
1 1 -1
0.75 0.75 -0.75
1 0.75 -0.75
0.75 1 -0.75
1 1 -0.75
0.5 0.75 -1
0.75 0.75 -1
0.5 1 -1
0.75 1 -1
0.5 0.75 -0.75
0.75 0.75 -0.75
0.5 1 -0.75
0.75 1 -0.75
0.5 0.5 -0.75
0.75 0.5 -0.75
0.5 0.75 -0.75
0.75 0.75 -0.75
0.5 0.5 -0.5
0.75 0.5 -0.5
0.5 0.75 -0.5
0.75 0.75 -0.5
0.75 0.5 -0.75
1 0.5 -0.75
0.75 0.75 -0.75
1 0.75 -0.75
0.75 0.5 -0.5
1 0.5 -0.5
0.75 0.75 -0.5
1 0.75 -0.5
0.75 0.75 -0.75
1 0.75 -0.75
0.75 1 -0.75
1 1 -0.75
0.75 0.75 -0.5
1 0.75 -0.5
0.75 1 -0.5
1 1 -0.5
0.5 0.75 -0.75
0.75 0.75 -0.75
0.5 1 -0.75
0.75 1 -0.75
0.5 0.75 -0.5
0.75 0.75 -0.5
0.5 1 -0.5
0.75 1 -0.5
0 0.5 -1
0.25 0.5 -1
0 0.75 -1
0.25 0.75 -1
0 0.5 -0.75
0.25 0.5 -0.75
0 0.75 -0.75
0.25 0.75 -0.75
0.25 0.5 -1
0.5 0.5 -1
0.25 0.75 -1
0.5 0.75 -1
0.25 0.5 -0.75
0.5 0.5 -0.75
0.25 0.75 -0.75
0.5 0.75 -0.75
0.25 0.75 -1
0.5 0.75 -1
0.25 1 -1
[...]
<CellData Scalars="attribute">
<DataArray type="Int32" Name="attribute" format="ascii">
1
1
1
1
1
1
1
1
1
1
1
1
1
1
1
1
1
1
1
1
1
1
1
1
1
1
1
1
1
1
1
1
1
1
1
1
1
1
1
1
1
1
1
1
1
1
1
1
1
1
1
1
1
1
1
1
1
1
1
1
1
1
1
1
1
1
1
1
1
1
1
1
1
1
1
1
1
1
1
1
1
1
1
1
1
1
1
1
1
1
1
1
1
1
1
1
1
1
1
1
1
1
1
1
1
1
1
1
1
1
1
1
1
1
1
1
1
1
1
1
1
1
1
1
1
1
1
1
1
1
1
1
1
1
1
1
1
1
1
1
1
1
1
1
1
1
1
1
1
1
1
1
1
1
1
1
1
1
1
1
1
1
1
1
1
1
1
1
1
1
1
1
1
1
1
1
1
1
1
1
1
1
1
1
1
1
1
1
1
1
1
1
1
1
1
1
1
1
1
1
1
1
1
1
1
1
1
1
1
1
1
1
1
1
1
1
1
1
1
1
1
1
1
1
1
1
1
1
1
1
1
1
1
1
1
1
1
1
1
1
1
1
1
1
1
1
1
1
1
1
1
1
1
1
1
1
1
1
1
1
1
1
1
1
1
1
1
1
1
1
1
1
1
1
1
1
1
1
1
1
1
1
1
1
1
1
1
1
1
1
1
1
1
1
1
1
1
1
1
1
1
1
1
1
1
1
1
1
1
1
1
1
1
1
1
1
1
1
1
1
1
1
1
1
1
1
1
1
1
1
1
1
1
1
1
1
1
1
1
1
1
1
1
1
1
1
1
1
1
1
1
1
1
1
1
1
1
1
1
1
1
1
1
1
1
1
1
1
1
1
1
1
1
1
1
1
1
1
1
1
1
1
1
1
1
1
1
1
1
1
1
1
1
1
1
1
1
1
1
1
1
1
1
1
1
1
1
1
1
1
1
1
1
1
1
1
1
1
1
1
1
1
1
1
1
1
1
1
1
1
1
1
1
1
1
1
1
1
1
1
1
1
1
1
1
1
1
1
</DataArray>
</CellData>
<PointData >
<DataArray type="Float64" Name="db_dt_field" NumberOfComponents="3" ComponentName0="0" ComponentName1="1" ComponentName2="2" format="ascii" >
-2.82842712 2.82842712 -2.82842712 
-2.84355695 2.82842712 -2.82842712 
-2.82842712 2.84486872 -2.82842712 
-2.84355695 2.84486872 -2.82842712 
-2.82842712 2.82842712 -2.8297389 
-2.84355695 2.82842712 -2.8297389 
-2.82842712 2.84486872 -2.8297389 
-2.84355695 2.84486872 -2.8297389 
-2.84355695 1.17157288 -2.82842712 
-2.84873331 1.17157288 -2.82842712 
-2.84355695 1.1832585 -2.82842712 
-2.84873331 1.1832585 -2.82842712 
-2.84355695 1.17157288 -2.83493639 
-2.84873331 1.17157288 -2.83493639 
-2.84355695 1.1832585 -2.83493639 
-2.84873331 1.1832585 -2.83493639 
-2.8389822 1.1832585 -1.17157288 
-2.84224421 1.1832585 -1.17157288 
-2.8389822 1.18844392 -1.17157288 
-2.84224421 1.18844392 -1.17157288 
-2.8389822 1.1832585 -1.17349627 
-2.84224421 1.1832585 -1.17349627 
-2.8389822 1.18844392 -1.17349627 
-2.84224421 1.18844392 -1.17349627 
-2.82842712 2.84486872 -1.17157288 
-2.8389822 2.84486872 -1.17157288 
-2.82842712 2.8521768 -1.17157288 
-2.8389822 2.8521768 -1.17157288 
-2.82842712 2.84486872 -1.16832588 
-2.8389822 2.84486872 -1.16832588 
-2.82842712 2.8521768 -1.16832588 
-2.8389822 2.8521768 -1.16832588 
-1.17157288 2.82842712 -2.8297389 
-1.18232003 2.82842712 -2.8297389 
-1.17157288 2.84013852 -2.8297389 
-1.18232003 2.84013852 -2.8297389 
-1.17157288 2.82842712 -2.83070314 
-1.18232003 2.82842712 -2.83070314 
-1.17157288 2.84013852 -2.83070314 
-1.18232003 2.84013852 -2.83070314 
-1.18232003 1.17157288 -2.83493639 
-1.18634932 1.17157288 -2.83493639 
-1.18232003 1.17853508 -2.83493639 
-1.18634932 1.17853508 -2.83493639 
-1.18232003 1.17157288 -2.8378693 
-1.18634932 1.17157288 -2.8378693 
-1.18232003 1.17853508 -2.8378693 
-1.18634932 1.17853508 -2.8378693 
-1.17772554 1.17853508 -1.17349627 
-1.17983597 1.17853508 -1.17349627 
-1.17772554 1.18165287 -1.17349627 
-1.17983597 1.18165287 -1.17349627 
-1.17772554 1.17853508 -1.17450363 
-1.17983597 1.17853508 -1.17450363 
-1.17772554 1.18165287 -1.17450363 
-1.17983597 1.18165287 -1.17450363 
-1.17157288 2.84013852 -1.16832588 
-1.17772554 2.84013852 -1.16832588 
-1.17157288 2.84532207 -1.16832588 
-1.17772554 2.84532207 -1.16832588 
-1.17157288 2.84013852 -1.16735677 
-1.17772554 2.84013852 -1.16735677 
-1.17157288 2.84532207 -1.16735677 
-1.17772554 2.84532207 -1.16735677 
-2.84873331 -1.17157288 -2.82842712 
-2.8435594 -1.17157288 -2.82842712 
-2.84873331 -1.16660935 -2.82842712 
-2.8435594 -1.16660935 -2.82842712 
-2.84873331 -1.17157288 -2.83856456 
-2.8435594 -1.17157288 -2.83856456 
-2.84873331 -1.16660935 -2.83856456 
-2.8435594 -1.16660935 -2.83856456 
-2.8435594 -2.82842712 -2.82842712 
-2.82842712 -2.82842712 -2.82842712 
-2.8435594 -2.82821316 -2.82842712 
-2.82842712 -2.82821316 -2.82842712 
-2.8435594 -2.82842712 -2.84377337 
-2.82842712 -2.82842712 -2.84377337 
-2.8435594 -2.82821316 -2.84377337 
-2.82842712 -2.82821316 -2.84377337 
-2.83896256 -2.82821316 -1.17157288 
-2.82842712 -2.82821316 -1.17157288 
-2.83896256 -2.82804437 -1.17157288 
-2.82842712 -2.82804437 -1.17157288 
-2.83896256 -2.82821316 -1.1822771 
-2.82842712 -2.82821316 -1.1822771 
-2.83896256 -2.82804437 -1.1822771 
-2.82842712 -2.82804437 -1.1822771 
-2.84224421 -1.16660935 -1.17157288 
-2.83896256 -1.16660935 -1.17157288 
-2.84224421 -1.16437329 -1.17157288 
-2.83896256 -1.16437329 -1.17157288 
-2.84224421 -1.16660935 -1.1770906 
-2.83896256 -1.16660935 -1.1770906 
-2.84224421 -1.16437329 -1.1770906 
-2.83896256 -1.16437329 -1.1770906 
-1.18634932 -1.17157288 -2.83856456 
-1.1823577 -1.17157288 -2.83856456 
-1.18634932 -1.17132179 -2.83856456 
-1.1823577 -1.17132179 -2.83856456 
-1.18634932 -1.17157288 -2.84280726 
-1.1823577 -1.17157288 -2.84280726 
-1.18634932 -1.17132179 -2.84280726 
-1.1823577 -1.17132179 -2.84280726 
-1.1823577 -2.82842712 -2.84377337 
-1.17157288 -2.82842712 -2.84377337 
-1.1823577 -2.832918 -2.84377337 
-1.17157288 -2.832918 -2.84377337 
-1.1823577 -2.82842712 -2.85006732 
-1.17157288 -2.82842712 -2.85006732 
-1.1823577 -2.832918 -2.85006732 
-1.17157288 -2.832918 -2.85006732 
-1.17774496 -2.832918 -1.1822771 
-1.17157288 -2.832918 -1.1822771 
-1.17774496 -2.83471418 -1.1822771 
-1.17157288 -2.83471418 -1.1822771 
-1.17774496 -2.832918 -1.18665301 
-1.17157288 -2.832918 -1.18665301 
-1.17774496 -2.83471418 -1.18665301 
-1.17157288 -2.83471418 -1.18665301 
-1.17983597 -1.17132179 -1.1770906 
-1.17774496 -1.17132179 -1.1770906 
-1.17983597 -1.17109078 -1.1770906 
-1.17774496 -1.17109078 -1.1770906 
-1.17983597 -1.17132179 -1.17941261 
-1.17774496 -1.17132179 -1.17941261 
-1.17983597 -1.17109078 -1.17941261 
-1.17774496 -1.17109078 -1.17941261 
-2.83986405 -1.16437329 1.17157288 
-2.83711905 -1.16437329 1.17157288 
-2.83986405 -1.16807418 1.17157288 
-2.83711905 -1.16807418 1.17157288 
-2.83986405 -1.16437329 1.17252878 
-2.83711905 -1.16437329 1.17252878 
-2.83986405 -1.16807418 1.17252878 
-2.83711905 -1.16807418 1.17252878 
-2.83711905 -2.82804437 1.17157288 
-2.82842712 -2.82804437 1.17157288 
-2.83711905 -2.83257415 1.17157288 
-2.82842712 -2.83257415 1.17157288 
-2.83711905 -2.82804437 1.16741073 
-2.82842712 -2.82804437 1.16741073 
-2.83711905 -2.83257415 1.16741073 
-2.82842712 -2.83257415 1.16741073 
-2.83638982 -2.83257415 2.82842712 
-2.82842712 -2.83257415 2.82842712 
-2.83638982 -2.84094655 2.82842712 
-2.82842712 -2.84094655 2.82842712 
-2.83638982 -2.83257415 2.82883683 
-2.82842712 -2.83257415 2.82883683 
-2.83638982 -2.84094655 2.82883683 
-2.82842712 -2.84094655 2.82883683 
-2.83913672 -1.16807418 2.82842712 
-2.83638982 -1.16807418 2.82842712 
-2.83913672 -1.17623547 2.82842712 
-2.83638982 -1.17623547 2.82842712 
-2.83913672 -1.16807418 2.83384151 
-2.83638982 -1.16807418 2.83384151 
-2.83913672 -1.17623547 2.83384151 
-2.83638982 -1.17623547 2.83384151 
-1.17731342 -1.17109078 1.17252878 
-1.1758626 -1.17109078 1.17252878 
-1.17731342 -1.17291154 1.17252878 
-1.1758626 -1.17291154 1.17252878 
-1.17731342 -1.17109078 1.17289872 
-1.1758626 -1.17109078 1.17289872 
-1.17731342 -1.17291154 1.17289872 
-1.1758626 -1.17291154 1.17289872 
-1.1758626 -2.83471418 1.16741073 
-1.17157288 -2.83471418 1.16741073 
-1.1758626 -2.83732938 1.16741073 
-1.17157288 -2.83732938 1.16741073 
-1.1758626 -2.83471418 1.1657362 
-1.17157288 -2.83471418 1.1657362 
-1.1758626 -2.83732938 1.1657362 
-1.17157288 -2.83732938 1.1657362 
-1.17506336 -2.83732938 2.82883683 
-1.17157288 -2.83732938 2.82883683 
-1.17506336 -2.84102859 2.82883683 
-1.17157288 -2.84102859 2.82883683 
-1.17506336 -2.83732938 2.82904556 
-1.17157288 -2.83732938 2.82904556 
-1.17506336 -2.84102859 2.82904556 
-1.17157288 -2.84102859 2.82904556 
-1.17635497 -1.17291154 2.83384151 
-1.17506336 -1.17291154 2.83384151 
-1.17635497 -1.17643059 2.83384151 
-1.17506336 -1.17643059 2.83384151 
-1.17635497 -1.17291154 2.83606895 
-1.17506336 -1.17291154 2.83606895 
-1.17635497 -1.17643059 2.83606895 
-1.17506336 -1.17643059 2.83606895 
-2.82842712 2.8521768 1.17157288 
-2.83735951 2.8521768 1.17157288 
-2.82842712 2.85168556 1.17157288 
-2.83735951 2.85168556 1.17157288 
-2.82842712 2.8521768 1.18099649 
-2.83735951 2.8521768 1.18099649 
-2.82842712 2.85168556 1.18099649 
-2.83735951 2.85168556 1.18099649 
-2.83735951 1.18844392 1.17157288 
-2.83986405 1.18844392 1.17157288 
-2.83735951 1.18655912 1.17157288 
-2.83986405 1.18655912 1.17157288 
-2.83735951 1.18844392 1.17596221 
-2.83986405 1.18844392 1.17596221 
-2.83735951 1.18655912 1.17596221 
-2.83986405 1.18655912 1.17596221 
-2.83892492 1.18655912 2.82842712 
-2.83913672 1.18655912 2.82842712 
-2.83892492 1.1783564 2.82842712 
-2.83913672 1.1783564 2.82842712 
-2.83892492 1.18655912 2.83684165 
-2.83913672 1.18655912 2.83684165 
-2.83892492 1.1783564 2.83684165 
-2.83913672 1.1783564 2.83684165 
-2.82842712 2.85168556 2.82842712 
-2.83892492 2.85168556 2.82842712 
-2.82842712 2.84964952 2.82842712 
-2.83892492 2.84964952 2.82842712 
-2.82842712 2.85168556 2.84096095 
-2.83892492 2.85168556 2.84096095 
-2.82842712 2.84964952 2.84096095 
-2.83892492 2.84964952 2.84096095 
-1.17157288 2.84532207 1.18099649 
-1.17598658 2.84532207 1.18099649 
-1.17157288 2.84612982 1.18099649 
-1.17598658 2.84612982 1.18099649 
-1.17157288 2.84532207 1.18460245 
-1.17598658 2.84532207 1.18460245 
-1.17157288 2.84612982 1.18460245 
-1.17598658 2.84612982 1.18460245 
-1.17598658 1.18165287 1.17596221 
-1.17731342 1.18165287 1.17596221 
-1.17598658 1.18132857 1.17596221 
-1.17731342 1.18132857 1.17596221 
-1.17598658 1.18165287 1.17761335 
-1.17731342 1.18165287 1.17761335 
-1.17598658 1.18132857 1.17761335 
-1.17731342 1.18132857 1.17761335 
-1.17650916 1.18132857 2.83684165 
-1.17635497 1.18132857 2.83684165 
-1.17650916 1.17780323 2.83684165 
-1.17635497 1.17780323 2.83684165 
-1.17650916 1.18132857 2.8402128 
-1.17635497 1.18132857 2.8402128 
-1.17650916 1.17780323 2.8402128 
-1.17635497 1.17780323 2.8402128 
-1.17157288 2.84612982 2.84096095 
-1.17650916 2.84612982 2.84096095 
-1.17157288 2.8460859 2.84096095 
-1.17650916 2.8460859 2.84096095 
-1.17157288 2.84612982 2.84594116 
-1.17650916 2.84612982 2.84594116 
-1.17157288 2.8460859 2.84594116 
-1.17650916 2.8460859 2.84594116 
1.17157288 2.82842712 -2.83070314 
1.16731373 2.82842712 -2.83070314 
1.17157288 2.83813919 -2.83070314 
1.16731373 2.83813919 -2.83070314 
1.17157288 2.82842712 -2.83615606 
1.16731373 2.82842712 -2.83615606 
1.17157288 2.83813919 -2.83615606 
1.16731373 2.83813919 -2.83615606 
1.16731373 1.17157288 -2.8378693 
1.16492679 1.17157288 -2.8378693 
1.16731373 1.17651316 -2.8378693 
1.16492679 1.17651316 -2.8378693 
1.16731373 1.17157288 -2.84042265 
1.16492679 1.17157288 -2.84042265 
1.16731373 1.17651316 -2.84042265 
1.16492679 1.17651316 -2.84042265 
1.17190658 1.17651316 -1.17450363 
1.17143693 1.17651316 -1.17450363 
1.17190658 1.17864365 -1.17450363 
1.17143693 1.17864365 -1.17450363 
1.17190658 1.17651316 -1.17616447 
1.17143693 1.17651316 -1.17616447 
1.17190658 1.17864365 -1.17616447 
1.17143693 1.17864365 -1.17616447 
1.17157288 2.83813919 -1.16735677 
1.17190658 2.83813919 -1.16735677 
1.17157288 2.84227442 -1.16735677 
1.17190658 2.84227442 -1.16735677 
1.17157288 2.83813919 -1.17182572 
1.17190658 2.83813919 -1.17182572 
1.17157288 2.84227442 -1.17182572 
1.17190658 2.84227442 -1.17182572 
2.82842712 2.82842712 -2.83615606 
2.83123106 2.82842712 -2.83615606 
2.82842712 2.83757711 -2.83615606 
2.83123106 2.83757711 -2.83615606 
2.82842712 2.82842712 -2.84810998 
2.83123106 2.82842712 -2.84810998 
2.82842712 2.83757711 -2.84810998 
2.83123106 2.83757711 -2.84810998 
2.83123106 1.17157288 -2.84042265 
2.82774572 1.17157288 -2.84042265 
2.83123106 1.17563165 -2.84042265 
2.82774572 1.17563165 -2.84042265 
2.83123106 1.17157288 -2.84099607 
2.82774572 1.17157288 -2.84099607 
2.83123106 1.17563165 -2.84099607 
2.82774572 1.17563165 -2.84099607 
2.83546835 1.17563165 -1.17616447 
2.83424492 1.17563165 -1.17616447 
2.83546835 1.17729299 -1.17616447 
2.83424492 1.17729299 -1.17616447 
2.83546835 1.17563165 -1.17660239 
2.83424492 1.17563165 -1.17660239 
2.83546835 1.17729299 -1.17660239 
2.83424492 1.17729299 -1.17660239 
2.82842712 2.83757711 -1.17182572 
2.83546835 2.83757711 -1.17182572 
2.82842712 2.84130958 -1.17182572 
2.83546835 2.84130958 -1.17182572 
2.82842712 2.83757711 -1.18259941 
2.83546835 2.83757711 -1.18259941 
2.82842712 2.84130958 -1.18259941 
2.83546835 2.84130958 -1.18259941 
1.16492679 -1.17157288 -2.84280726 
1.16697403 -1.17157288 -2.84280726 
1.16492679 -1.17336616 -2.84280726 
1.16697403 -1.17336616 -2.84280726 
1.16492679 -1.17157288 -2.84306121 
1.16697403 -1.17157288 -2.84306121 
1.16492679 -1.17336616 -2.84306121 
1.16697403 -1.17336616 -2.84306121 
1.16697403 -2.82842712 -2.85006732 
1.17157288 -2.82842712 -2.85006732 
1.16697403 -2.83496131 -2.85006732 
1.17157288 -2.83496131 -2.85006732 
1.16697403 -2.82842712 -2.84813198 
1.17157288 -2.82842712 -2.84813198 
1.16697403 -2.83496131 -2.84813198 
1.17157288 -2.83496131 -2.84813198 
1.17160699 -2.83496131 -1.18665301 
1.17157288 -2.83496131 -1.18665301 
1.17160699 -2.83762726 -1.18665301 
1.17157288 -2.83762726 -1.18665301 
1.17160699 -2.83496131 -1.18395294 
1.17157288 -2.83496131 -1.18395294 
1.17160699 -2.83762726 -1.18395294 
1.17157288 -2.83762726 -1.18395294 
1.17143693 -1.17336616 -1.17941261 
1.17160699 -1.17336616 -1.17941261 
1.17143693 -1.17405504 -1.17941261 
1.17160699 -1.17405504 -1.17941261 
1.17143693 -1.17336616 -1.17889379 
1.17160699 -1.17336616 -1.17889379 
1.17143693 -1.17405504 -1.17889379 
1.17160699 -1.17405504 -1.17889379 
2.82774572 -1.17157288 -2.84306121 
2.82825065 -1.17157288 -2.84306121 
2.82774572 -1.17434849 -2.84306121 
2.82825065 -1.17434849 -2.84306121 
2.82774572 -1.17157288 -2.84079052 
2.82825065 -1.17157288 -2.84079052 
2.82774572 -1.17434849 -2.84079052 
2.82825065 -1.17434849 -2.84079052 
2.82825065 -2.82842712 -2.84813198 
2.82842712 -2.82842712 -2.84813198 
2.82825065 -2.8359502 -2.84813198 
2.82842712 -2.8359502 -2.84813198 
2.82825065 -2.82842712 -2.84078538 
2.82842712 -2.82842712 -2.84078538 
2.82825065 -2.8359502 -2.84078538 
2.82842712 -2.8359502 -2.84078538 
2.83289241 -2.8359502 -1.18395294 
2.82842712 -2.8359502 -1.18395294 
2.83289241 -2.83904543 -1.18395294 
2.82842712 -2.83904543 -1.18395294 
2.83289241 -2.8359502 -1.17639243 
2.82842712 -2.8359502 -1.17639243 
2.83289241 -2.83904543 -1.17639243 
2.82842712 -2.83904543 -1.17639243 
2.83424492 -1.17434849 -1.17889379 
2.83289241 -1.17434849 -1.17889379 
2.83424492 -1.17549591 -1.17889379 
2.83289241 -1.17549591 -1.17889379 
2.83424492 -1.17434849 -1.17639386 
2.83289241 -1.17434849 -1.17639386 
2.83424492 -1.17549591 -1.17639386 
2.83289241 -1.17549591 -1.17639386 
1.17410178 -1.17405504 1.17289872 
1.17353932 -1.17405504 1.17289872 
1.17410178 -1.17512425 1.17289872 
1.17353932 -1.17512425 1.17289872 
1.17410178 -1.17405504 1.1745304 
1.17353932 -1.17405504 1.1745304 
1.17410178 -1.17512425 1.1745304 
1.17353932 -1.17512425 1.1745304 
1.17353932 -2.83762726 1.1657362 
1.17157288 -2.83762726 1.1657362 
1.17353932 -2.83944522 1.1657362 
1.17157288 -2.83944522 1.1657362 
1.17353932 -2.83762726 1.16952059 
1.17157288 -2.83762726 1.16952059 
1.17353932 -2.83944522 1.16952059 
1.17157288 -2.83944522 1.16952059 
1.17442943 -2.83944522 2.82904556 
1.17157288 -2.83944522 2.82904556 
1.17442943 -2.84114696 2.82904556 
1.17157288 -2.84114696 2.82904556 
1.17442943 -2.83944522 2.83360385 
1.17157288 -2.83944522 2.83360385 
1.17442943 -2.84114696 2.83360385 
1.17157288 -2.84114696 2.83360385 
1.17532168 -1.17512425 2.83606895 
1.17442943 -1.17512425 2.83606895 
1.17532168 -1.17668892 2.83606895 
1.17442943 -1.17668892 2.83606895 
1.17532168 -1.17512425 2.83852588 
1.17442943 -1.17512425 2.83852588 
1.17532168 -1.17668892 2.83852588 
1.17442943 -1.17668892 2.83852588 
2.83698471 -1.17549591 1.1745304 
2.83485186 -1.17549591 1.1745304 
2.83698471 -1.17622495 1.1745304 
2.83485186 -1.17622495 1.1745304 
2.83698471 -1.17549591 1.1773923 
2.83485186 -1.17549591 1.1773923 
2.83698471 -1.17622495 1.1773923 
2.83485186 -1.17622495 1.1773923 
2.83485186 -2.83904543 1.16952059 
2.82842712 -2.83904543 1.16952059 
2.83485186 -2.84049491 1.16952059 
2.82842712 -2.84049491 1.16952059 
2.83485186 -2.83904543 1.1773948 
2.82842712 -2.83904543 1.1773948 
2.83485186 -2.84049491 1.1773948 
2.82842712 -2.84049491 1.1773948 
2.83580192 -2.84049491 2.83360385 
2.82842712 -2.84049491 2.83360385 
2.83580192 -2.84124437 2.83360385 
2.82842712 -2.84124437 2.83360385 
2.83580192 -2.84049491 2.8417281 
2.82842712 -2.84049491 2.8417281 
2.83580192 -2.84124437 2.8417281 
2.82842712 -2.84124437 2.8417281 
2.83833586 -1.17622495 2.83852588 
2.83580192 -1.17622495 2.83852588 
2.83833586 -1.17687202 2.83852588 
2.83580192 -1.17687202 2.83852588 
2.83833586 -1.17622495 2.8417069 
2.83580192 -1.17622495 2.8417069 
2.83833586 -1.17687202 2.8417069 
2.83580192 -1.17687202 2.8417069 
1.17157288 2.84227442 1.18460245 
1.17375771 2.84227442 1.18460245 
1.17157288 2.84304328 1.18460245 
1.17375771 2.84304328 1.18460245 
1.17157288 2.84227442 1.18164875 
1.17375771 2.84227442 1.18164875 
1.17157288 2.84304328 1.18164875 
1.17375771 2.84304328 1.18164875 
1.17375771 1.17864365 1.17761335 
1.17410178 1.17864365 1.17761335 
1.17375771 1.17862818 1.17761335 
1.17410178 1.17862818 1.17761335 
1.17375771 1.17864365 1.17728475 
1.17410178 1.17864365 1.17728475 
1.17375771 1.17862818 1.17728475 
1.17410178 1.17862818 1.17728475 
1.17463358 1.17862818 2.8402128 
1.17532168 1.17862818 2.8402128 
1.17463358 1.17710754 2.8402128 
1.17532168 1.17710754 2.8402128 
1.17463358 1.17862818 2.84104533 
1.17532168 1.17862818 2.84104533 
1.17463358 1.17710754 2.84104533 
1.17532168 1.17710754 2.84104533 
1.17157288 2.84304328 2.84594116 
1.17463358 2.84304328 2.84594116 
1.17157288 2.84120608 2.84594116 
1.17463358 2.84120608 2.84594116 
1.17157288 2.84304328 2.84471766 
1.17463358 2.84304328 2.84471766 
1.17157288 2.84120608 2.84471766 
1.17463358 2.84120608 2.84471766 
2.82842712 2.84130958 1.18164875 
2.83690664 2.84130958 1.18164875 
2.82842712 2.84182882 1.18164875 
2.83690664 2.84182882 1.18164875 
2.82842712 2.84130958 1.17264999 
2.83690664 2.84130958 1.17264999 
2.82842712 2.84182882 1.17264999 
2.83690664 2.84182882 1.17264999 
2.83690664 1.17729299 1.17728475 
2.83698471 1.17729299 1.17728475 
2.83690664 1.1773252 1.17728475 
2.83698471 1.1773252 1.17728475 
2.83690664 1.17729299 1.17717445 
2.83698471 1.17729299 1.17717445 
2.83690664 1.1773252 1.17717445 
2.83698471 1.1773252 1.17717445 
2.83826405 1.1773252 2.84104533 
2.83833586 1.1773252 2.84104533 
2.83826405 1.17677437 2.84104533 
2.83833586 1.17677437 2.84104533 
2.83826405 1.1773252 2.84152435 
2.83833586 1.1773252 2.84152435 
2.83826405 1.17677437 2.84152435 
2.83833586 1.17677437 2.84152435 
2.82842712 2.84182882 2.84471766 
2.83826405 2.84182882 2.84471766 
2.82842712 2.83848351 2.84471766 
2.83826405 2.83848351 2.84471766 
2.82842712 2.84182882 2.83822605 
2.83826405 2.84182882 2.83822605 
2.82842712 2.83848351 2.83822605 
2.83826405 2.83848351 2.83822605 
-2.84810981 2.84964952 2.82842712 
-2.83978599 2.84964952 2.82842712 
-2.84810981 2.83206031 2.82842712 
-2.83978599 2.83206031 2.82842712 
-2.84810981 2.84964952 2.83769252 
-2.83978599 2.84964952 2.83769252 
-2.84810981 2.83206031 2.83769252 
-2.83978599 2.83206031 2.83769252 
-2.83978599 1.1783564 2.82842712 
-2.83888409 1.1783564 2.82842712 
-2.83978599 1.16976419 2.82842712 
-2.83888409 1.16976419 2.82842712 
-2.83978599 1.1783564 2.83611743 
-2.83888409 1.1783564 2.83611743 
-2.83978599 1.16976419 2.83611743 
-2.83888409 1.16976419 2.83611743 
-2.84031772 1.16976419 1.17157288 
-2.8378272 1.16976419 1.17157288 
-2.84031772 1.16486307 1.17157288 
-2.8378272 1.16486307 1.17157288 
-2.84031772 1.16976419 1.17398347 
-2.8378272 1.16976419 1.17398347 
-2.84031772 1.16486307 1.17398347 