<VTKFile type="UnstructuredGrid" version="2.2" byte_order="LittleEndian">
<UnstructuredGrid>
<Piece NumberOfPoints="3584" NumberOfCells="448">
<Points>
<DataArray type="Float64" NumberOfComponents="3" format="ascii">
0 -1 -1
0.25 -1 -1
0 -0.75 -1
0.25 -0.75 -1
0 -1 -0.75
0.25 -1 -0.75
0 -0.75 -0.75
0.25 -0.75 -0.75
0.25 -1 -1
0.5 -1 -1
0.25 -0.75 -1
0.5 -0.75 -1
0.25 -1 -0.75
0.5 -1 -0.75
0.25 -0.75 -0.75
0.5 -0.75 -0.75
0.25 -0.75 -1
0.5 -0.75 -1
0.25 -0.5 -1
0.5 -0.5 -1
0.25 -0.75 -0.75
0.5 -0.75 -0.75
0.25 -0.5 -0.75
0.5 -0.5 -0.75
0 -0.75 -1
0.25 -0.75 -1
0 -0.5 -1
0.25 -0.5 -1
0 -0.75 -0.75
0.25 -0.75 -0.75
0 -0.5 -0.75
0.25 -0.5 -0.75
0 -1 -0.75
0.25 -1 -0.75
0 -0.75 -0.75
0.25 -0.75 -0.75
0 -1 -0.5
0.25 -1 -0.5
0 -0.75 -0.5
0.25 -0.75 -0.5
0.25 -1 -0.75
0.5 -1 -0.75
0.25 -0.75 -0.75
0.5 -0.75 -0.75
0.25 -1 -0.5
0.5 -1 -0.5
0.25 -0.75 -0.5
0.5 -0.75 -0.5
0.25 -0.75 -0.75
0.5 -0.75 -0.75
0.25 -0.5 -0.75
0.5 -0.5 -0.75
0.25 -0.75 -0.5
0.5 -0.75 -0.5
0.25 -0.5 -0.5
0.5 -0.5 -0.5
0 -0.75 -0.75
0.25 -0.75 -0.75
0 -0.5 -0.75
0.25 -0.5 -0.75
0 -0.75 -0.5
0.25 -0.75 -0.5
0 -0.5 -0.5
0.25 -0.5 -0.5
0.5 -1 -1
0.75 -1 -1
0.5 -0.75 -1
0.75 -0.75 -1
0.5 -1 -0.75
0.75 -1 -0.75
0.5 -0.75 -0.75
0.75 -0.75 -0.75
0.75 -1 -1
1 -1 -1
0.75 -0.75 -1
1 -0.75 -1
0.75 -1 -0.75
1 -1 -0.75
0.75 -0.75 -0.75
1 -0.75 -0.75
0.75 -0.75 -1
1 -0.75 -1
0.75 -0.5 -1
1 -0.5 -1
0.75 -0.75 -0.75
1 -0.75 -0.75
0.75 -0.5 -0.75
1 -0.5 -0.75
0.5 -0.75 -1
0.75 -0.75 -1
0.5 -0.5 -1
0.75 -0.5 -1
0.5 -0.75 -0.75
0.75 -0.75 -0.75
0.5 -0.5 -0.75
0.75 -0.5 -0.75
0.5 -1 -0.75
0.75 -1 -0.75
0.5 -0.75 -0.75
0.75 -0.75 -0.75
0.5 -1 -0.5
0.75 -1 -0.5
0.5 -0.75 -0.5
0.75 -0.75 -0.5
0.75 -1 -0.75
1 -1 -0.75
0.75 -0.75 -0.75
1 -0.75 -0.75
0.75 -1 -0.5
1 -1 -0.5
0.75 -0.75 -0.5
1 -0.75 -0.5
0.75 -0.75 -0.75
1 -0.75 -0.75
0.75 -0.5 -0.75
1 -0.5 -0.75
0.75 -0.75 -0.5
1 -0.75 -0.5
0.75 -0.5 -0.5
1 -0.5 -0.5
0.5 -0.75 -0.75
0.75 -0.75 -0.75
0.5 -0.5 -0.75
0.75 -0.5 -0.75
0.5 -0.75 -0.5
0.75 -0.75 -0.5
0.5 -0.5 -0.5
0.75 -0.5 -0.5
0.5 -0.5 -1
0.75 -0.5 -1
0.5 -0.25 -1
0.75 -0.25 -1
0.5 -0.5 -0.75
0.75 -0.5 -0.75
0.5 -0.25 -0.75
0.75 -0.25 -0.75
0.75 -0.5 -1
1 -0.5 -1
0.75 -0.25 -1
1 -0.25 -1
0.75 -0.5 -0.75
1 -0.5 -0.75
0.75 -0.25 -0.75
1 -0.25 -0.75
0.75 -0.25 -1
1 -0.25 -1
0.75 0 -1
1 0 -1
0.75 -0.25 -0.75
1 -0.25 -0.75
0.75 0 -0.75
1 0 -0.75
0.5 -0.25 -1
0.75 -0.25 -1
0.5 0 -1
0.75 0 -1
0.5 -0.25 -0.75
0.75 -0.25 -0.75
0.5 0 -0.75
0.75 0 -0.75
0.5 -0.5 -0.75
0.75 -0.5 -0.75
0.5 -0.25 -0.75
0.75 -0.25 -0.75
0.5 -0.5 -0.5
0.75 -0.5 -0.5
0.5 -0.25 -0.5
0.75 -0.25 -0.5
0.75 -0.5 -0.75
1 -0.5 -0.75
0.75 -0.25 -0.75
1 -0.25 -0.75
0.75 -0.5 -0.5
1 -0.5 -0.5
0.75 -0.25 -0.5
1 -0.25 -0.5
0.75 -0.25 -0.75
1 -0.25 -0.75
0.75 0 -0.75
1 0 -0.75
0.75 -0.25 -0.5
1 -0.25 -0.5
0.75 0 -0.5
1 0 -0.5
0.5 -0.25 -0.75
0.75 -0.25 -0.75
0.5 0 -0.75
0.75 0 -0.75
0.5 -0.25 -0.5
0.75 -0.25 -0.5
0.5 0 -0.5
0.75 0 -0.5
0 -0.5 -1
0.25 -0.5 -1
0 -0.25 -1
0.25 -0.25 -1
0 -0.5 -0.75
0.25 -0.5 -0.75
0 -0.25 -0.75
0.25 -0.25 -0.75
0.25 -0.5 -1
0.5 -0.5 -1
0.25 -0.25 -1
0.5 -0.25 -1
0.25 -0.5 -0.75
0.5 -0.5 -0.75
0.25 -0.25 -0.75
0.5 -0.25 -0.75
0.25 -0.25 -1
0.5 -0.25 -1
0.25 0 -1
0.5 0 -1
0.25 -0.25 -0.75
0.5 -0.25 -0.75
0.25 0 -0.75
0.5 0 -0.75
0 -0.25 -1
0.25 -0.25 -1
0 0 -1
0.25 0 -1
0 -0.25 -0.75
0.25 -0.25 -0.75
0 0 -0.75
0.25 0 -0.75
0 -0.5 -0.75
0.25 -0.5 -0.75
0 -0.25 -0.75
0.25 -0.25 -0.75
0 -0.5 -0.5
0.25 -0.5 -0.5
0 -0.25 -0.5
0.25 -0.25 -0.5
0.25 -0.5 -0.75
0.5 -0.5 -0.75
0.25 -0.25 -0.75
0.5 -0.25 -0.75
0.25 -0.5 -0.5
0.5 -0.5 -0.5
0.25 -0.25 -0.5
0.5 -0.25 -0.5
0.25 -0.25 -0.75
0.5 -0.25 -0.75
0.25 0 -0.75
0.5 0 -0.75
0.25 -0.25 -0.5
0.5 -0.25 -0.5
0.25 0 -0.5
0.5 0 -0.5
0 -0.25 -0.75
0.25 -0.25 -0.75
0 0 -0.75
0.25 0 -0.75
0 -0.25 -0.5
0.25 -0.25 -0.5
0 0 -0.5
0.25 0 -0.5
0 -1 -0.5
0.25 -1 -0.5
0 -0.75 -0.5
0.25 -0.75 -0.5
0 -1 -0.25
0.25 -1 -0.25
0 -0.75 -0.25
0.25 -0.75 -0.25
0.25 -1 -0.5
0.5 -1 -0.5
0.25 -0.75 -0.5
0.5 -0.75 -0.5
0.25 -1 -0.25
0.5 -1 -0.25
0.25 -0.75 -0.25
0.5 -0.75 -0.25
0.25 -0.75 -0.5
0.5 -0.75 -0.5
0.25 -0.5 -0.5
0.5 -0.5 -0.5
0.25 -0.75 -0.25
0.5 -0.75 -0.25
0.25 -0.5 -0.25
0.5 -0.5 -0.25
0 -0.75 -0.5
0.25 -0.75 -0.5
0 -0.5 -0.5
0.25 -0.5 -0.5
0 -0.75 -0.25
0.25 -0.75 -0.25
0 -0.5 -0.25
0.25 -0.5 -0.25
0 -1 -0.25
0.25 -1 -0.25
0 -0.75 -0.25
0.25 -0.75 -0.25
0 -1 0
0.25 -1 0
0 -0.75 0
0.25 -0.75 0
0.25 -1 -0.25
0.5 -1 -0.25
0.25 -0.75 -0.25
0.5 -0.75 -0.25
0.25 -1 0
0.5 -1 0
0.25 -0.75 0
0.5 -0.75 0
0.25 -0.75 -0.25
0.5 -0.75 -0.25
0.25 -0.5 -0.25
0.5 -0.5 -0.25
0.25 -0.75 0
0.5 -0.75 0
0.25 -0.5 0
0.5 -0.5 0
0 -0.75 -0.25
0.25 -0.75 -0.25
0 -0.5 -0.25
0.25 -0.5 -0.25
0 -0.75 0
0.25 -0.75 0
0 -0.5 0
0.25 -0.5 0
0.5 -1 -0.5
0.75 -1 -0.5
0.5 -0.75 -0.5
0.75 -0.75 -0.5
0.5 -1 -0.25
0.75 -1 -0.25
0.5 -0.75 -0.25
0.75 -0.75 -0.25
0.75 -1 -0.5
1 -1 -0.5
0.75 -0.75 -0.5
1 -0.75 -0.5
0.75 -1 -0.25
1 -1 -0.25
0.75 -0.75 -0.25
1 -0.75 -0.25
0.75 -0.75 -0.5
1 -0.75 -0.5
0.75 -0.5 -0.5
1 -0.5 -0.5
0.75 -0.75 -0.25
1 -0.75 -0.25
0.75 -0.5 -0.25
1 -0.5 -0.25
0.5 -0.75 -0.5
0.75 -0.75 -0.5
0.5 -0.5 -0.5
0.75 -0.5 -0.5
0.5 -0.75 -0.25
0.75 -0.75 -0.25
0.5 -0.5 -0.25
0.75 -0.5 -0.25
0.5 -1 -0.25
0.75 -1 -0.25
0.5 -0.75 -0.25
0.75 -0.75 -0.25
0.5 -1 0
0.75 -1 0
0.5 -0.75 0
0.75 -0.75 0
0.75 -1 -0.25
1 -1 -0.25
0.75 -0.75 -0.25
1 -0.75 -0.25
0.75 -1 0
1 -1 0
0.75 -0.75 0
1 -0.75 0
0.75 -0.75 -0.25
1 -0.75 -0.25
0.75 -0.5 -0.25
1 -0.5 -0.25
0.75 -0.75 0
1 -0.75 0
0.75 -0.5 0
1 -0.5 0
0.5 -0.75 -0.25
0.75 -0.75 -0.25
0.5 -0.5 -0.25
0.75 -0.5 -0.25
0.5 -0.75 0
0.75 -0.75 0
0.5 -0.5 0
0.75 -0.5 0
0.5 -0.5 -0.5
0.75 -0.5 -0.5
0.5 -0.25 -0.5
0.75 -0.25 -0.5
0.5 -0.5 -0.25
0.75 -0.5 -0.25
0.5 -0.25 -0.25
0.75 -0.25 -0.25
0.75 -0.5 -0.5
1 -0.5 -0.5
0.75 -0.25 -0.5
1 -0.25 -0.5
0.75 -0.5 -0.25
1 -0.5 -0.25
0.75 -0.25 -0.25
1 -0.25 -0.25
0.75 -0.25 -0.5
1 -0.25 -0.5
0.75 0 -0.5
1 0 -0.5
0.75 -0.25 -0.25
1 -0.25 -0.25
0.75 0 -0.25
1 0 -0.25
0.5 -0.25 -0.5
0.75 -0.25 -0.5
0.5 0 -0.5
0.75 0 -0.5
0.5 -0.25 -0.25
0.75 -0.25 -0.25
0.5 0 -0.25
0.75 0 -0.25
0.5 -0.5 -0.25
0.75 -0.5 -0.25
0.5 -0.25 -0.25
0.75 -0.25 -0.25
0.5 -0.5 0
0.75 -0.5 0
0.5 -0.25 0
0.75 -0.25 0
0.75 -0.5 -0.25
1 -0.5 -0.25
0.75 -0.25 -0.25
1 -0.25 -0.25
0.75 -0.5 0
1 -0.5 0
0.75 -0.25 0
1 -0.25 0
0.75 -0.25 -0.25
1 -0.25 -0.25
0.75 0 -0.25
1 0 -0.25
0.75 -0.25 0
1 -0.25 0
0.75 0 0
1 0 0
0.5 -0.25 -0.25
0.75 -0.25 -0.25
0.5 0 -0.25
0.75 0 -0.25
0.5 -0.25 0
0.75 -0.25 0
0.5 0 0
0.75 0 0
0 -0.5 -0.5
0.25 -0.5 -0.5
0 -0.25 -0.5
0.25 -0.25 -0.5
0 -0.5 -0.25
0.25 -0.5 -0.25
0 -0.25 -0.25
0.25 -0.25 -0.25
0.25 -0.5 -0.5
0.5 -0.5 -0.5
0.25 -0.25 -0.5
0.5 -0.25 -0.5
0.25 -0.5 -0.25
0.5 -0.5 -0.25
0.25 -0.25 -0.25
0.5 -0.25 -0.25
0.25 -0.25 -0.5
0.5 -0.25 -0.5
0.25 0 -0.5
0.5 0 -0.5
0.25 -0.25 -0.25
0.5 -0.25 -0.25
0.25 0 -0.25
0.5 0 -0.25
0 -0.25 -0.5
0.25 -0.25 -0.5
0 0 -0.5
0.25 0 -0.5
0 -0.25 -0.25
0.25 -0.25 -0.25
0 0 -0.25
0.25 0 -0.25
0 -0.5 -0.25
0.25 -0.5 -0.25
0 -0.25 -0.25
0.25 -0.25 -0.25
0 -0.5 0
0.25 -0.5 0
0 -0.25 0
0.25 -0.25 0
0.25 -0.5 -0.25
0.5 -0.5 -0.25
0.25 -0.25 -0.25
0.5 -0.25 -0.25
0.25 -0.5 0
0.5 -0.5 0
0.25 -0.25 0
0.5 -0.25 0
0.25 -0.25 -0.25
0.5 -0.25 -0.25
0.25 0 -0.25
0.5 0 -0.25
0.25 -0.25 0
0.5 -0.25 0
0.25 0 0
0.5 0 0
0 -0.25 -0.25
0.25 -0.25 -0.25
0 0 -0.25
0.25 0 -0.25
0 -0.25 0
0.25 -0.25 0
0 0 0
0.25 0 0
0 0 -1
0.25 0 -1
0 0.25 -1
0.25 0.25 -1
0 0 -0.75
0.25 0 -0.75
0 0.25 -0.75
0.25 0.25 -0.75
0.25 0 -1
0.5 0 -1
0.25 0.25 -1
0.5 0.25 -1
0.25 0 -0.75
0.5 0 -0.75
0.25 0.25 -0.75
0.5 0.25 -0.75
0.25 0.25 -1
0.5 0.25 -1
0.25 0.5 -1
0.5 0.5 -1
0.25 0.25 -0.75
0.5 0.25 -0.75
0.25 0.5 -0.75
0.5 0.5 -0.75
0 0.25 -1
0.25 0.25 -1
0 0.5 -1
0.25 0.5 -1
0 0.25 -0.75
0.25 0.25 -0.75
0 0.5 -0.75
0.25 0.5 -0.75
0 0 -0.75
0.25 0 -0.75
0 0.25 -0.75
0.25 0.25 -0.75
0 0 -0.5
0.25 0 -0.5
0 0.25 -0.5
0.25 0.25 -0.5
0.25 0 -0.75
0.5 0 -0.75
0.25 0.25 -0.75
0.5 0.25 -0.75
0.25 0 -0.5
0.5 0 -0.5
0.25 0.25 -0.5
0.5 0.25 -0.5
0.25 0.25 -0.75
0.5 0.25 -0.75
0.25 0.5 -0.75
0.5 0.5 -0.75
0.25 0.25 -0.5
0.5 0.25 -0.5
0.25 0.5 -0.5
0.5 0.5 -0.5
0 0.25 -0.75
0.25 0.25 -0.75
0 0.5 -0.75
0.25 0.5 -0.75
0 0.25 -0.5
0.25 0.25 -0.5
0 0.5 -0.5
0.25 0.5 -0.5
0.5 0 -1
0.75 0 -1
0.5 0.25 -1
0.75 0.25 -1
0.5 0 -0.75
0.75 0 -0.75
0.5 0.25 -0.75
0.75 0.25 -0.75
0.75 0 -1
1 0 -1
0.75 0.25 -1
1 0.25 -1
0.75 0 -0.75
1 0 -0.75
0.75 0.25 -0.75
1 0.25 -0.75
0.75 0.25 -1
1 0.25 -1
0.75 0.5 -1
1 0.5 -1
0.75 0.25 -0.75
1 0.25 -0.75
0.75 0.5 -0.75
1 0.5 -0.75
0.5 0.25 -1
0.75 0.25 -1
0.5 0.5 -1
0.75 0.5 -1
0.5 0.25 -0.75
0.75 0.25 -0.75
0.5 0.5 -0.75
0.75 0.5 -0.75
0.5 0 -0.75
0.75 0 -0.75
0.5 0.25 -0.75
0.75 0.25 -0.75
0.5 0 -0.5
0.75 0 -0.5
0.5 0.25 -0.5
0.75 0.25 -0.5
0.75 0 -0.75
1 0 -0.75
0.75 0.25 -0.75
1 0.25 -0.75
0.75 0 -0.5
1 0 -0.5
0.75 0.25 -0.5
1 0.25 -0.5
0.75 0.25 -0.75
1 0.25 -0.75
0.75 0.5 -0.75
1 0.5 -0.75
0.75 0.25 -0.5
1 0.25 -0.5
0.75 0.5 -0.5
1 0.5 -0.5
0.5 0.25 -0.75
0.75 0.25 -0.75
0.5 0.5 -0.75
0.75 0.5 -0.75
0.5 0.25 -0.5
0.75 0.25 -0.5
0.5 0.5 -0.5
0.75 0.5 -0.5
0.5 0.5 -1
0.75 0.5 -1
0.5 0.75 -1
0.75 0.75 -1
0.5 0.5 -0.75
0.75 0.5 -0.75
0.5 0.75 -0.75
0.75 0.75 -0.75
0.75 0.5 -1
1 0.5 -1
0.75 0.75 -1
1 0.75 -1
0.75 0.5 -0.75
1 0.5 -0.75
0.75 0.75 -0.75
1 0.75 -0.75
0.75 0.75 -1
1 0.75 -1
0.75 1 -1
1 1 -1
0.75 0.75 -0.75
1 0.75 -0.75
0.75 1 -0.75
1 1 -0.75
0.5 0.75 -1
0.75 0.75 -1
0.5 1 -1
0.75 1 -1
0.5 0.75 -0.75
0.75 0.75 -0.75
0.5 1 -0.75
0.75 1 -0.75
0.5 0.5 -0.75
0.75 0.5 -0.75
0.5 0.75 -0.75
0.75 0.75 -0.75
0.5 0.5 -0.5
0.75 0.5 -0.5
0.5 0.75 -0.5
0.75 0.75 -0.5
0.75 0.5 -0.75
1 0.5 -0.75
0.75 0.75 -0.75
1 0.75 -0.75
0.75 0.5 -0.5
1 0.5 -0.5
0.75 0.75 -0.5
1 0.75 -0.5
0.75 0.75 -0.75
1 0.75 -0.75
0.75 1 -0.75
1 1 -0.75
0.75 0.75 -0.5
1 0.75 -0.5
0.75 1 -0.5
1 1 -0.5
0.5 0.75 -0.75
0.75 0.75 -0.75
0.5 1 -0.75
0.75 1 -0.75
0.5 0.75 -0.5
0.75 0.75 -0.5
0.5 1 -0.5
0.75 1 -0.5
0 0.5 -1
0.25 0.5 -1
0 0.75 -1
0.25 0.75 -1
0 0.5 -0.75
0.25 0.5 -0.75
0 0.75 -0.75
0.25 0.75 -0.75
0.25 0.5 -1
0.5 0.5 -1
0.25 0.75 -1
0.5 0.75 -1
0.25 0.5 -0.75
0.5 0.5 -0.75
0.25 0.75 -0.75
0.5 0.75 -0.75
0.25 0.75 -1
0.5 0.75 -1
0.25 1 -1
[...]
<CellData Scalars="attribute">
<DataArray type="Int32" Name="attribute" format="ascii">
1
1
1
1
1
1
1
1
1
1
1
1
1
1
1
1
1
1
1
1
1
1
1
1
1
1
1
1
1
1
1
1
1
1
1
1
1
1
1
1
1
1
1
1
1
1
1
1
1
1
1
1
1
1
1
1
1
1
1
1
1
1
1
1
1
1
1
1
1
1
1
1
1
1
1
1
1
1
1
1
1
1
1
1
1
1
1
1
1
1
1
1
1
1
1
1
1
1
1
1
1
1
1
1
1
1
1
1
1
1
1
1
1
1
1
1
1
1
1
1
1
1
1
1
1
1
1
1
1
1
1
1
1
1
1
1
1
1
1
1
1
1
1
1
1
1
1
1
1
1
1
1
1
1
1
1
1
1
1
1
1
1
1
1
1
1
1
1
1
1
1
1
1
1
1
1
1
1
1
1
1
1
1
1
1
1
1
1
1
1
1
1
1
1
1
1
1
1
1
1
1
1
1
1
1
1
1
1
1
1
1
1
1
1
1
1
1
1
1
1
1
1
1
1
1
1
1
1
1
1
1
1
1
1
1
1
1
1
1
1
1
1
1
1
1
1
1
1
1
1
1
1
1
1
1
1
1
1
1
1
1
1
1
1
1
1
1
1
1
1
1
1
1
1
1
1
1
1
1
1
1
1
1
1
1
1
1
1
1
1
1
1
1
1
1
1
1
1
1
1
1
1
1
1
1
1
1
1
1
1
1
1
1
1
1
1
1
1
1
1
1
1
1
1
1
1
1
1
1
1
1
1
1
1
1
1
1
1
1
1
1
1
1
1
1
1
1
1
1
1
1
1
1
1
1
1
1
1
1
1
1
1
1
1
1
1
1
1
1
1
1
1
1
1
1
1
1
1
1
1
1
1
1
1
1
1
1
1
1
1
1
1
1
1
1
1
1
1
1
1
1
1
1
1
1
1
1
1
1
1
1
1
1
1
1
1
1
1
1
1
1
1
1
1
1
1
1
1
1
1
1
1
1
1
1
1
1
1
1
1
1
1
1
1
1
1
1
1
</DataArray>
</CellData>
<PointData >
<DataArray type="Float64" Name="db_dt_field" NumberOfComponents="3" ComponentName0="0" ComponentName1="1" ComponentName2="2" format="ascii" >
-2.82842712 2.82842712 -2.82842712 
-2.84355699 2.82842712 -2.82842712 
-2.82842712 2.84486874 -2.82842712 
-2.84355699 2.84486874 -2.82842712 
-2.82842712 2.82842712 -2.82973887 
-2.84355699 2.82842712 -2.82973887 
-2.82842712 2.84486874 -2.82973887 
-2.84355699 2.84486874 -2.82973887 
-2.84355699 1.17157288 -2.82842712 
-2.84873334 1.17157288 -2.82842712 
-2.84355699 1.18325848 -2.82842712 
-2.84873334 1.18325848 -2.82842712 
-2.84355699 1.17157288 -2.83493638 
-2.84873334 1.17157288 -2.83493638 
-2.84355699 1.18325848 -2.83493638 
-2.84873334 1.18325848 -2.83493638 
-2.8389821 1.18325848 -1.17157288 
-2.84224416 1.18325848 -1.17157288 
-2.8389821 1.18844396 -1.17157288 
-2.84224416 1.18844396 -1.17157288 
-2.8389821 1.18325848 -1.17349629 
-2.84224416 1.18325848 -1.17349629 
-2.8389821 1.18844396 -1.17349629 
-2.84224416 1.18844396 -1.17349629 
-2.82842712 2.84486874 -1.17157288 
-2.8389821 2.84486874 -1.17157288 
-2.82842712 2.85217674 -1.17157288 
-2.8389821 2.85217674 -1.17157288 
-2.82842712 2.84486874 -1.1683259 
-2.8389821 2.84486874 -1.1683259 
-2.82842712 2.85217674 -1.1683259 
-2.8389821 2.85217674 -1.1683259 
-1.17157288 2.82842712 -2.82973887 
-1.18232004 2.82842712 -2.82973887 
-1.17157288 2.84013847 -2.82973887 
-1.18232004 2.84013847 -2.82973887 
-1.17157288 2.82842712 -2.83070305 
-1.18232004 2.82842712 -2.83070305 
-1.17157288 2.84013847 -2.83070305 
-1.18232004 2.84013847 -2.83070305 
-1.18232004 1.17157288 -2.83493638 
-1.18634933 1.17157288 -2.83493638 
-1.18232004 1.17853504 -2.83493638 
-1.18634933 1.17853504 -2.83493638 
-1.18232004 1.17157288 -2.83786925 
-1.18634933 1.17157288 -2.83786925 
-1.18232004 1.17853504 -2.83786925 
-1.18634933 1.17853504 -2.83786925 
-1.17772551 1.17853504 -1.17349629 
-1.17983596 1.17853504 -1.17349629 
-1.17772551 1.18165282 -1.17349629 
-1.17983596 1.18165282 -1.17349629 
-1.17772551 1.17853504 -1.17450364 
-1.17983596 1.17853504 -1.17450364 
-1.17772551 1.18165282 -1.17450364 
-1.17983596 1.18165282 -1.17450364 
-1.17157288 2.84013847 -1.1683259 
-1.17772551 2.84013847 -1.1683259 
-1.17157288 2.8453219 -1.1683259 
-1.17772551 2.8453219 -1.1683259 
-1.17157288 2.84013847 -1.1673567 
-1.17772551 2.84013847 -1.1673567 
-1.17157288 2.8453219 -1.1673567 
-1.17772551 2.8453219 -1.1673567 
-2.84873334 -1.17157288 -2.82842712 
-2.84355941 -1.17157288 -2.82842712 
-2.84873334 -1.16660938 -2.82842712 
-2.84355941 -1.16660938 -2.82842712 
-2.84873334 -1.17157288 -2.83856455 
-2.84355941 -1.17157288 -2.83856455 
-2.84873334 -1.16660938 -2.83856455 
-2.84355941 -1.16660938 -2.83856455 
-2.84355941 -2.82842712 -2.82842712 
-2.82842712 -2.82842712 -2.82842712 
-2.84355941 -2.82821313 -2.82842712 
-2.82842712 -2.82821313 -2.82842712 
-2.84355941 -2.82842712 -2.8437734 
-2.82842712 -2.82842712 -2.8437734 
-2.84355941 -2.82821313 -2.8437734 
-2.82842712 -2.82821313 -2.8437734 
-2.83896253 -2.82821313 -1.17157288 
-2.82842712 -2.82821313 -1.17157288 
-2.83896253 -2.82804427 -1.17157288 
-2.82842712 -2.82804427 -1.17157288 
-2.83896253 -2.82821313 -1.18227714 
-2.82842712 -2.82821313 -1.18227714 
-2.83896253 -2.82804427 -1.18227714 
-2.82842712 -2.82804427 -1.18227714 
-2.84224416 -1.16660938 -1.17157288 
-2.83896253 -1.16660938 -1.17157288 
-2.84224416 -1.16437329 -1.17157288 
-2.83896253 -1.16437329 -1.17157288 
-2.84224416 -1.16660938 -1.1770906 
-2.83896253 -1.16660938 -1.1770906 
-2.84224416 -1.16437329 -1.1770906 
-2.83896253 -1.16437329 -1.1770906 
-1.18634933 -1.17157288 -2.83856455 
-1.1823577 -1.17157288 -2.83856455 
-1.18634933 -1.17132186 -2.83856455 
-1.1823577 -1.17132186 -2.83856455 
-1.18634933 -1.17157288 -2.8428072 
-1.1823577 -1.17157288 -2.8428072 
-1.18634933 -1.17132186 -2.8428072 
-1.1823577 -1.17132186 -2.8428072 
-1.1823577 -2.82842712 -2.8437734 
-1.17157288 -2.82842712 -2.8437734 
-1.1823577 -2.83291802 -2.8437734 
-1.17157288 -2.83291802 -2.8437734 
-1.1823577 -2.82842712 -2.85006733 
-1.17157288 -2.82842712 -2.85006733 
-1.1823577 -2.83291802 -2.85006733 
-1.17157288 -2.83291802 -2.85006733 
-1.17774491 -2.83291802 -1.18227714 
-1.17157288 -2.83291802 -1.18227714 
-1.17774491 -2.83471416 -1.18227714 
-1.17157288 -2.83471416 -1.18227714 
-1.17774491 -2.83291802 -1.18665303 
-1.17157288 -2.83291802 -1.18665303 
-1.17774491 -2.83471416 -1.18665303 
-1.17157288 -2.83471416 -1.18665303 
-1.17983596 -1.17132186 -1.1770906 
-1.17774491 -1.17132186 -1.1770906 
-1.17983596 -1.1710909 -1.1770906 
-1.17774491 -1.1710909 -1.1770906 
-1.17983596 -1.17132186 -1.1794126 
-1.17774491 -1.17132186 -1.1794126 
-1.17983596 -1.1710909 -1.1794126 
-1.17774491 -1.1710909 -1.1794126 
-2.83986393 -1.16437329 1.17157288 
-2.83711909 -1.16437329 1.17157288 
-2.83986393 -1.16807409 1.17157288 
-2.83711909 -1.16807409 1.17157288 
-2.83986393 -1.16437329 1.17252884 
-2.83711909 -1.16437329 1.17252884 
-2.83986393 -1.16807409 1.17252884 
-2.83711909 -1.16807409 1.17252884 
-2.83711909 -2.82804427 1.17157288 
-2.82842712 -2.82804427 1.17157288 
-2.83711909 -2.83257412 1.17157288 
-2.82842712 -2.83257412 1.17157288 
-2.83711909 -2.82804427 1.16741075 
-2.82842712 -2.82804427 1.16741075 
-2.83711909 -2.83257412 1.16741075 
-2.82842712 -2.83257412 1.16741075 
-2.83638976 -2.83257412 2.82842712 
-2.82842712 -2.83257412 2.82842712 
-2.83638976 -2.84094642 2.82842712 
-2.82842712 -2.84094642 2.82842712 
-2.83638976 -2.83257412 2.82883679 
-2.82842712 -2.83257412 2.82883679 
-2.83638976 -2.84094642 2.82883679 
-2.82842712 -2.84094642 2.82883679 
-2.83913668 -1.16807409 2.82842712 
-2.83638976 -1.16807409 2.82842712 
-2.83913668 -1.17623538 2.82842712 
-2.83638976 -1.17623538 2.82842712 
-2.83913668 -1.16807409 2.83384149 
-2.83638976 -1.16807409 2.83384149 
-2.83913668 -1.17623538 2.83384149 
-2.83638976 -1.17623538 2.83384149 
-1.17731338 -1.1710909 1.17252884 
-1.1758626 -1.1710909 1.17252884 
-1.17731338 -1.17291156 1.17252884 
-1.1758626 -1.17291156 1.17252884 
-1.17731338 -1.1710909 1.17289871 
-1.1758626 -1.1710909 1.17289871 
-1.17731338 -1.17291156 1.17289871 
-1.1758626 -1.17291156 1.17289871 
-1.1758626 -2.83471416 1.16741075 
-1.17157288 -2.83471416 1.16741075 
-1.1758626 -2.83732933 1.16741075 
-1.17157288 -2.83732933 1.16741075 
-1.1758626 -2.83471416 1.1657362 
-1.17157288 -2.83471416 1.1657362 
-1.1758626 -2.83732933 1.1657362 
-1.17157288 -2.83732933 1.1657362 
-1.17506339 -2.83732933 2.82883679 
-1.17157288 -2.83732933 2.82883679 
-1.17506339 -2.84102851 2.82883679 
-1.17157288 -2.84102851 2.82883679 
-1.17506339 -2.83732933 2.82904546 
-1.17157288 -2.83732933 2.82904546 
-1.17506339 -2.84102851 2.82904546 
-1.17157288 -2.84102851 2.82904546 
-1.17635496 -1.17291156 2.83384149 
-1.17506339 -1.17291156 2.83384149 
-1.17635496 -1.17643057 2.83384149 
-1.17506339 -1.17643057 2.83384149 
-1.17635496 -1.17291156 2.83606893 
-1.17506339 -1.17291156 2.83606893 
-1.17635496 -1.17643057 2.83606893 
-1.17506339 -1.17643057 2.83606893 
-2.82842712 2.85217674 1.17157288 
-2.83735945 2.85217674 1.17157288 
-2.82842712 2.8516854 1.17157288 
-2.83735945 2.8516854 1.17157288 
-2.82842712 2.85217674 1.18099654 
-2.83735945 2.85217674 1.18099654 
-2.82842712 2.8516854 1.18099654 
-2.83735945 2.8516854 1.18099654 
-2.83735945 1.18844396 1.17157288 
-2.83986393 1.18844396 1.17157288 
-2.83735945 1.18655912 1.17157288 
-2.83986393 1.18655912 1.17157288 
-2.83735945 1.18844396 1.1759622 
-2.83986393 1.18844396 1.1759622 
-2.83735945 1.18655912 1.1759622 
-2.83986393 1.18655912 1.1759622 
-2.83892488 1.18655912 2.82842712 
-2.83913668 1.18655912 2.82842712 
-2.83892488 1.17835643 2.82842712 
-2.83913668 1.17835643 2.82842712 
-2.83892488 1.18655912 2.83684161 
-2.83913668 1.18655912 2.83684161 
-2.83892488 1.17835643 2.83684161 
-2.83913668 1.17835643 2.83684161 
-2.82842712 2.8516854 2.82842712 
-2.83892488 2.8516854 2.82842712 
-2.82842712 2.84964943 2.82842712 
-2.83892488 2.84964943 2.82842712 
-2.82842712 2.8516854 2.84096086 
-2.83892488 2.8516854 2.84096086 
-2.82842712 2.84964943 2.84096086 
-2.83892488 2.84964943 2.84096086 
-1.17157288 2.8453219 1.18099654 
-1.17598653 2.8453219 1.18099654 
-1.17157288 2.84612962 1.18099654 
-1.17598653 2.84612962 1.18099654 
-1.17157288 2.8453219 1.18460247 
-1.17598653 2.8453219 1.18460247 
-1.17157288 2.84612962 1.18460247 
-1.17598653 2.84612962 1.18460247 
-1.17598653 1.18165282 1.1759622 
-1.17731338 1.18165282 1.1759622 
-1.17598653 1.18132856 1.1759622 
-1.17731338 1.18132856 1.1759622 
-1.17598653 1.18165282 1.17761331 
-1.17731338 1.18165282 1.17761331 
-1.17598653 1.18132856 1.17761331 
-1.17731338 1.18132856 1.17761331 
-1.17650923 1.18132856 2.83684161 
-1.17635496 1.18132856 2.83684161 
-1.17650923 1.17780313 2.83684161 
-1.17635496 1.17780313 2.83684161 
-1.17650923 1.18132856 2.84021278 
-1.17635496 1.18132856 2.84021278 
-1.17650923 1.17780313 2.84021278 
-1.17635496 1.17780313 2.84021278 
-1.17157288 2.84612962 2.84096086 
-1.17650923 2.84612962 2.84096086 
-1.17157288 2.84608577 2.84096086 
-1.17650923 2.84608577 2.84096086 
-1.17157288 2.84612962 2.84594107 
-1.17650923 2.84612962 2.84594107 
-1.17157288 2.84608577 2.84594107 
-1.17650923 2.84608577 2.84594107 
1.17157288 2.82842712 -2.83070305 
1.16731371 2.82842712 -2.83070305 
1.17157288 2.83813913 -2.83070305 
1.16731371 2.83813913 -2.83070305 
1.17157288 2.82842712 -2.83615589 
1.16731371 2.82842712 -2.83615589 
1.17157288 2.83813913 -2.83615589 
1.16731371 2.83813913 -2.83615589 
1.16731371 1.17157288 -2.83786925 
1.16492679 1.17157288 -2.83786925 
1.16731371 1.17651307 -2.83786925 
1.16492679 1.17651307 -2.83786925 
1.16731371 1.17157288 -2.84042252 
1.16492679 1.17157288 -2.84042252 
1.16731371 1.17651307 -2.84042252 
1.16492679 1.17651307 -2.84042252 
1.17190667 1.17651307 -1.17450364 
1.17143693 1.17651307 -1.17450364 
1.17190667 1.17864361 -1.17450364 
1.17143693 1.17864361 -1.17450364 
1.17190667 1.17651307 -1.17616443 
1.17143693 1.17651307 -1.17616443 
1.17190667 1.17864361 -1.17616443 
1.17143693 1.17864361 -1.17616443 
1.17157288 2.83813913 -1.1673567 
1.17190667 2.83813913 -1.1673567 
1.17157288 2.84227422 -1.1673567 
1.17190667 2.84227422 -1.1673567 
1.17157288 2.83813913 -1.17182558 
1.17190667 2.83813913 -1.17182558 
1.17157288 2.84227422 -1.17182558 
1.17190667 2.84227422 -1.17182558 
2.82842712 2.82842712 -2.83615589 
2.83123101 2.82842712 -2.83615589 
2.82842712 2.83757705 -2.83615589 
2.83123101 2.83757705 -2.83615589 
2.82842712 2.82842712 -2.8481097 
2.83123101 2.82842712 -2.8481097 
2.82842712 2.83757705 -2.8481097 
2.83123101 2.83757705 -2.8481097 
2.83123101 1.17157288 -2.84042252 
2.82774569 1.17157288 -2.84042252 
2.83123101 1.17563161 -2.84042252 
2.82774569 1.17563161 -2.84042252 
2.83123101 1.17157288 -2.84099593 
2.82774569 1.17157288 -2.84099593 
2.83123101 1.17563161 -2.84099593 
2.82774569 1.17563161 -2.84099593 
2.83546837 1.17563161 -1.17616443 
2.83424491 1.17563161 -1.17616443 
2.83546837 1.17729294 -1.17616443 
2.83424491 1.17729294 -1.17616443 
2.83546837 1.17563161 -1.1766023 
2.83424491 1.17563161 -1.1766023 
2.83546837 1.17729294 -1.1766023 
2.83424491 1.17729294 -1.1766023 
2.82842712 2.83757705 -1.17182558 
2.83546837 2.83757705 -1.17182558 
2.82842712 2.84130933 -1.17182558 
2.83546837 2.84130933 -1.17182558 
2.82842712 2.83757705 -1.18259912 
2.83546837 2.83757705 -1.18259912 
2.82842712 2.84130933 -1.18259912 
2.83546837 2.84130933 -1.18259912 
1.16492679 -1.17157288 -2.8428072 
1.16697402 -1.17157288 -2.8428072 
1.16492679 -1.1733662 -2.8428072 
1.16697402 -1.1733662 -2.8428072 
1.16492679 -1.17157288 -2.84306111 
1.16697402 -1.17157288 -2.84306111 
1.16492679 -1.1733662 -2.84306111 
1.16697402 -1.1733662 -2.84306111 
1.16697402 -2.82842712 -2.85006733 
1.17157288 -2.82842712 -2.85006733 
1.16697402 -2.83496135 -2.85006733 
1.17157288 -2.83496135 -2.85006733 
1.16697402 -2.82842712 -2.84813196 
1.17157288 -2.82842712 -2.84813196 
1.16697402 -2.83496135 -2.84813196 
1.17157288 -2.83496135 -2.84813196 
1.17160707 -2.83496135 -1.18665303 
1.17157288 -2.83496135 -1.18665303 
1.17160707 -2.83762721 -1.18665303 
1.17157288 -2.83762721 -1.18665303 
1.17160707 -2.83496135 -1.18395297 
1.17157288 -2.83496135 -1.18395297 
1.17160707 -2.83762721 -1.18395297 
1.17157288 -2.83762721 -1.18395297 
1.17143693 -1.1733662 -1.1794126 
1.17160707 -1.1733662 -1.1794126 
1.17143693 -1.17405517 -1.1794126 
1.17160707 -1.17405517 -1.1794126 
1.17143693 -1.1733662 -1.17889377 
1.17160707 -1.1733662 -1.17889377 
1.17143693 -1.17405517 -1.17889377 
1.17160707 -1.17405517 -1.17889377 
2.82774569 -1.17157288 -2.84306111 
2.82825067 -1.17157288 -2.84306111 
2.82774569 -1.17434854 -2.84306111 
2.82825067 -1.17434854 -2.84306111 
2.82774569 -1.17157288 -2.84079043 
2.82825067 -1.17157288 -2.84079043 
2.82774569 -1.17434854 -2.84079043 
2.82825067 -1.17434854 -2.84079043 
2.82825067 -2.82842712 -2.84813196 
2.82842712 -2.82842712 -2.84813196 
2.82825067 -2.83595022 -2.84813196 
2.82842712 -2.83595022 -2.84813196 
2.82825067 -2.82842712 -2.84078532 
2.82842712 -2.82842712 -2.84078532 
2.82825067 -2.83595022 -2.84078532 
2.82842712 -2.83595022 -2.84078532 
2.83289249 -2.83595022 -1.18395297 
2.82842712 -2.83595022 -1.18395297 
2.83289249 -2.83904541 -1.18395297 
2.82842712 -2.83904541 -1.18395297 
2.83289249 -2.83595022 -1.17639242 
2.82842712 -2.83595022 -1.17639242 
2.83289249 -2.83904541 -1.17639242 
2.82842712 -2.83904541 -1.17639242 
2.83424491 -1.17434854 -1.17889377 
2.83289249 -1.17434854 -1.17889377 
2.83424491 -1.17549607 -1.17889377 
2.83289249 -1.17549607 -1.17889377 
2.83424491 -1.17434854 -1.17639382 
2.83289249 -1.17434854 -1.17639382 
2.83424491 -1.17549607 -1.17639382 
2.83289249 -1.17549607 -1.17639382 
1.17410184 -1.17405517 1.17289871 
1.17353927 -1.17405517 1.17289871 
1.17410184 -1.17512428 1.17289871 
1.17353927 -1.17512428 1.17289871 
1.17410184 -1.17405517 1.1745304 
1.17353927 -1.17405517 1.1745304 
1.17410184 -1.17512428 1.1745304 
1.17353927 -1.17512428 1.1745304 
1.17353927 -2.83762721 1.1657362 
1.17157288 -2.83762721 1.1657362 
1.17353927 -2.83944525 1.1657362 
1.17157288 -2.83944525 1.1657362 
1.17353927 -2.83762721 1.16952063 
1.17157288 -2.83762721 1.16952063 
1.17353927 -2.83944525 1.16952063 
1.17157288 -2.83944525 1.16952063 
1.17442947 -2.83944525 2.82904546 
1.17157288 -2.83944525 2.82904546 
1.17442947 -2.8411469 2.82904546 
1.17157288 -2.8411469 2.82904546 
1.17442947 -2.83944525 2.8336037 
1.17157288 -2.83944525 2.8336037 
1.17442947 -2.8411469 2.8336037 
1.17157288 -2.8411469 2.8336037 
1.1753216 -1.17512428 2.83606893 
1.17442947 -1.17512428 2.83606893 
1.1753216 -1.17668903 2.83606893 
1.17442947 -1.17668903 2.83606893 
1.1753216 -1.17512428 2.8385258 
1.17442947 -1.17512428 2.8385258 
1.1753216 -1.17668903 2.8385258 
1.17442947 -1.17668903 2.8385258 
2.83698479 -1.17549607 1.1745304 
2.83485183 -1.17549607 1.1745304 
2.83698479 -1.176225 1.1745304 
2.83485183 -1.176225 1.1745304 
2.83698479 -1.17549607 1.17739228 
2.83485183 -1.17549607 1.17739228 
2.83698479 -1.176225 1.17739228 
2.83485183 -1.176225 1.17739228 
2.83485183 -2.83904541 1.16952063 
2.82842712 -2.83904541 1.16952063 
2.83485183 -2.84049488 1.16952063 
2.82842712 -2.84049488 1.16952063 
2.83485183 -2.83904541 1.17739481 
2.82842712 -2.83904541 1.17739481 
2.83485183 -2.84049488 1.17739481 
2.82842712 -2.84049488 1.17739481 
2.83580184 -2.84049488 2.8336037 
2.82842712 -2.84049488 2.8336037 
2.83580184 -2.84124442 2.8336037 
2.82842712 -2.84124442 2.8336037 
2.83580184 -2.84049488 2.84172797 
2.82842712 -2.84049488 2.84172797 
2.83580184 -2.84124442 2.84172797 
2.82842712 -2.84124442 2.84172797 
2.83833577 -1.176225 2.8385258 
2.83580184 -1.176225 2.8385258 
2.83833577 -1.1768721 2.8385258 
2.83580184 -1.1768721 2.8385258 
2.83833577 -1.176225 2.84170684 
2.83580184 -1.176225 2.84170684 
2.83833577 -1.1768721 2.84170684 
2.83580184 -1.1768721 2.84170684 
1.17157288 2.84227422 1.18460247 
1.17375767 2.84227422 1.18460247 
1.17157288 2.84304301 1.18460247 
1.17375767 2.84304301 1.18460247 
1.17157288 2.84227422 1.18164888 
1.17375767 2.84227422 1.18164888 
1.17157288 2.84304301 1.18164888 
1.17375767 2.84304301 1.18164888 
1.17375767 1.17864361 1.17761331 
1.17410184 1.17864361 1.17761331 
1.17375767 1.178628 1.17761331 
1.17410184 1.178628 1.17761331 
1.17375767 1.17864361 1.17728476 
1.17410184 1.17864361 1.17728476 
1.17375767 1.178628 1.17728476 
1.17410184 1.178628 1.17728476 
1.17463353 1.178628 2.84021278 
1.1753216 1.178628 2.84021278 
1.17463353 1.17710751 2.84021278 
1.1753216 1.17710751 2.84021278 
1.17463353 1.178628 2.8410452 
1.1753216 1.178628 2.8410452 
1.17463353 1.17710751 2.8410452 
1.1753216 1.17710751 2.8410452 
1.17157288 2.84304301 2.84594107 
1.17463353 2.84304301 2.84594107 
1.17157288 2.8412059 2.84594107 
1.17463353 2.8412059 2.84594107 
1.17157288 2.84304301 2.84471752 
1.17463353 2.84304301 2.84471752 
1.17157288 2.8412059 2.84471752 
1.17463353 2.8412059 2.84471752 
2.82842712 2.84130933 1.18164888 
2.83690662 2.84130933 1.18164888 
2.82842712 2.84182863 1.18164888 
2.83690662 2.84182863 1.18164888 
2.82842712 2.84130933 1.17265009 
2.83690662 2.84130933 1.17265009 
2.82842712 2.84182863 1.17265009 
2.83690662 2.84182863 1.17265009 
2.83690662 1.17729294 1.17728476 
2.83698479 1.17729294 1.17728476 
2.83690662 1.1773251 1.17728476 
2.83698479 1.1773251 1.17728476 
2.83690662 1.17729294 1.17717443 
2.83698479 1.17729294 1.17717443 
2.83690662 1.1773251 1.17717443 
2.83698479 1.1773251 1.17717443 
2.83826389 1.1773251 2.8410452 
2.83833577 1.1773251 2.8410452 
2.83826389 1.17677416 2.8410452 
2.83833577 1.17677416 2.8410452 
2.83826389 1.1773251 2.84152426 
2.83833577 1.1773251 2.84152426 
2.83826389 1.17677416 2.84152426 
2.83833577 1.17677416 2.84152426 
2.82842712 2.84182863 2.84471752 
2.83826389 2.84182863 2.84471752 
2.82842712 2.83848337 2.84471752 
2.83826389 2.83848337 2.84471752 
2.82842712 2.84182863 2.83822602 
2.83826389 2.84182863 2.83822602 
2.82842712 2.83848337 2.83822602 
2.83826389 2.83848337 2.83822602 
-2.8481097 2.84964943 2.82842712 
-2.83978597 2.84964943 2.82842712 
-2.8481097 2.83206029 2.82842712 
-2.83978597 2.83206029 2.82842712 
-2.8481097 2.84964943 2.83769254 
-2.83978597 2.84964943 2.83769254 
-2.8481097 2.83206029 2.83769254 
-2.83978597 2.83206029 2.83769254 
-2.83978597 1.17835643 2.82842712 
-2.83888397 1.17835643 2.82842712 
-2.83978597 1.16976409 2.82842712 
-2.83888397 1.16976409 2.82842712 
-2.83978597 1.17835643 2.83611746 
-2.83888397 1.17835643 2.83611746 
-2.83978597 1.16976409 2.83611746 
-2.83888397 1.16976409 2.83611746 
-2.84031767 1.16976409 1.17157288 
-2.83782724 1.16976409 1.17157288 
-2.84031767 1.16486311 1.17157288 
-2.83782724 1.16486311 1.17157288 
-2.84031767 1.16976409 1.17398343 
-2.83782724 1.16976409 1.17398343 
-2.84031767 1.16486311 1.17398343 
-2.83782724 1.16486311 1.17398343 
-2.84099593 2.83206029 1.17157288 