<VTKFile type="UnstructuredGrid" version="0.1" byte_order="LittleEndian">
<UnstructuredGrid>
<Piece NumberOfPoints="1536" NumberOfCells="384">
<Points>
<DataArray type="Float64" NumberOfComponents="3" format="ascii">
1 1 1
0.5 0.5 0.5
1 0.5 1
0.5 0.5 1
0.5 0.5 0.5
0 0 0
0.5 0 0.5
0 0 0.5
1 0.5 1
0.5 0 0.5
1 0 1
0.5 0 1
0.5 0.5 1
0 0 0.5
0.5 0 1
0 0 1
0.5 0.5 1
0.5 0.5 0.5
1 0.5 1
0.5 0 0.5
0.5 0.5 1
1 0.5 1
0.5 0 1
0.5 0 0.5
0.5 0.5 1
0.5 0 1
0 0 0.5
0.5 0 0.5
0.5 0.5 1
0 0 0.5
0.5 0.5 0.5
0.5 0 0.5
0 0 0
0.5 0.5 0.5
0.5 0 0.5
0.5 0 0
0.5 0.5 0.5
1 1 1
1 0.5 1
1 0.5 0.5
0.5 0 0.5
1 0.5 1
1 0 1
1 0 0.5
0.5 0 0
1 0.5 0.5
1 0 0.5
1 0 0
0.5 0 0.5
0.5 0.5 0.5
1 0.5 0.5
0.5 0 0
0.5 0 0.5
0.5 0 0
1 0.5 0.5
1 0 0.5
0.5 0 0.5
1 0 0.5
1 0.5 0.5
1 0.5 1
0.5 0 0.5
1 0.5 1
1 0.5 0.5
0.5 0.5 0.5
1 1 1
0.5 0.5 0.5
1 1 0.5
1 0.5 0.5
0.5 0.5 0.5
0 0 0
0.5 0.5 0
0.5 0 0
1 1 0.5
0.5 0.5 0
1 1 0
1 0.5 0
1 0.5 0.5
0.5 0 0
1 0.5 0
1 0 0
1 0.5 0.5
0.5 0.5 0.5
1 1 0.5
0.5 0.5 0
1 0.5 0.5
1 1 0.5
1 0.5 0
0.5 0.5 0
1 0.5 0.5
1 0.5 0
0.5 0 0
0.5 0.5 0
1 0.5 0.5
0.5 0 0
0.5 0.5 0.5
0.5 0.5 0
1 1 1
0.5 0.5 0.5
0.5 0.5 1
0.5 1 1
0.5 0.5 0.5
0 0 0
0 0 0.5
0 0.5 0.5
0.5 0.5 1
0 0 0.5
0 0 1
0 0.5 1
0.5 1 1
0 0.5 0.5
0 0.5 1
0 1 1
0.5 0.5 1
0.5 0.5 0.5
0 0.5 0.5
0.5 1 1
0.5 0.5 1
0.5 1 1
0 0.5 0.5
0 0.5 1
0.5 0.5 1
0 0.5 1
0 0.5 0.5
0 0 0.5
0.5 0.5 1
0 0 0.5
0 0.5 0.5
0.5 0.5 0.5
0 0 0
0.5 0.5 0.5
0 0.5 0
0 0.5 0.5
0.5 0.5 0.5
1 1 1
0.5 1 0.5
0.5 1 1
0 0.5 0
0.5 1 0.5
0 1 0
0 1 0.5
0 0.5 0.5
0.5 1 1
0 1 0.5
0 1 1
0 0.5 0.5
0.5 0.5 0.5
0 0.5 0
0.5 1 0.5
0 0.5 0.5
0 0.5 0
0 1 0.5
0.5 1 0.5
0 0.5 0.5
0 1 0.5
0.5 1 1
0.5 1 0.5
0 0.5 0.5
0.5 1 1
0.5 0.5 0.5
0.5 1 0.5
1 1 1
0.5 0.5 0.5
0.5 1 0.5
1 1 0.5
0.5 0.5 0.5
0 0 0
0 0.5 0
0.5 0.5 0
0.5 1 0.5
0 0.5 0
0 1 0
0.5 1 0
1 1 0.5
0.5 0.5 0
0.5 1 0
1 1 0
0.5 1 0.5
0.5 0.5 0.5
0.5 0.5 0
1 1 0.5
0.5 1 0.5
1 1 0.5
0.5 0.5 0
0.5 1 0
0.5 1 0.5
0.5 1 0
0.5 0.5 0
0 0.5 0
0.5 1 0.5
0 0.5 0
0.5 0.5 0
0.5 0.5 0.5
2 1 1
1.5 0.5 0.5
2 0.5 1
1.5 0.5 1
1.5 0.5 0.5
1 0 0
1.5 0 0.5
1 0 0.5
2 0.5 1
1.5 0 0.5
2 0 1
1.5 0 1
1.5 0.5 1
1 0 0.5
1.5 0 1
1 0 1
1.5 0.5 1
1.5 0.5 0.5
2 0.5 1
1.5 0 0.5
1.5 0.5 1
2 0.5 1
1.5 0 1
1.5 0 0.5
1.5 0.5 1
1.5 0 1
1 0 0.5
1.5 0 0.5
1.5 0.5 1
1 0 0.5
1.5 0.5 0.5
1.5 0 0.5
1 0 0
1.5 0.5 0.5
1.5 0 0.5
1.5 0 0
1.5 0.5 0.5
2 1 1
2 0.5 1
2 0.5 0.5
1.5 0 0.5
2 0.5 1
2 0 1
2 0 0.5
1.5 0 0
2 0.5 0.5
2 0 0.5
2 0 0
1.5 0 0.5
1.5 0.5 0.5
2 0.5 0.5
1.5 0 0
1.5 0 0.5
1.5 0 0
2 0.5 0.5
2 0 0.5
1.5 0 0.5
2 0 0.5
2 0.5 0.5
2 0.5 1
1.5 0 0.5
2 0.5 1
2 0.5 0.5
1.5 0.5 0.5
2 1 1
1.5 0.5 0.5
2 1 0.5
2 0.5 0.5
1.5 0.5 0.5
1 0 0
1.5 0.5 0
1.5 0 0
2 1 0.5
1.5 0.5 0
2 1 0
2 0.5 0
2 0.5 0.5
1.5 0 0
2 0.5 0
2 0 0
2 0.5 0.5
1.5 0.5 0.5
2 1 0.5
1.5 0.5 0
2 0.5 0.5
2 1 0.5
2 0.5 0
1.5 0.5 0
2 0.5 0.5
2 0.5 0
1.5 0 0
1.5 0.5 0
2 0.5 0.5
1.5 0 0
1.5 0.5 0.5
1.5 0.5 0
2 1 1
1.5 0.5 0.5
1.5 0.5 1
1.5 1 1
1.5 0.5 0.5
1 0 0
1 0 0.5
1 0.5 0.5
1.5 0.5 1
1 0 0.5
1 0 1
1 0.5 1
1.5 1 1
1 0.5 0.5
1 0.5 1
1 1 1
1.5 0.5 1
1.5 0.5 0.5
1 0.5 0.5
1.5 1 1
1.5 0.5 1
1.5 1 1
1 0.5 0.5
1 0.5 1
1.5 0.5 1
1 0.5 1
1 0.5 0.5
1 0 0.5
1.5 0.5 1
1 0 0.5
1 0.5 0.5
1.5 0.5 0.5
1 0 0
1.5 0.5 0.5
1 0.5 0
1 0.5 0.5
1.5 0.5 0.5
2 1 1
1.5 1 0.5
1.5 1 1
1 0.5 0
1.5 1 0.5
1 1 0
1 1 0.5
1 0.5 0.5
1.5 1 1
1 1 0.5
1 1 1
1 0.5 0.5
1.5 0.5 0.5
1 0.5 0
1.5 1 0.5
1 0.5 0.5
1 0.5 0
1 1 0.5
1.5 1 0.5
1 0.5 0.5
1 1 0.5
1.5 1 1
1.5 1 0.5
1 0.5 0.5
1.5 1 1
1.5 0.5 0.5
1.5 1 0.5
2 1 1
1.5 0.5 0.5
1.5 1 0.5
2 1 0.5
1.5 0.5 0.5
1 0 0
1 0.5 0
1.5 0.5 0
1.5 1 0.5
1 0.5 0
1 1 0
1.5 1 0
2 1 0.5
1.5 0.5 0
1.5 1 0
2 1 0
1.5 1 0.5
1.5 0.5 0.5
1.5 0.5 0
2 1 0.5
1.5 1 0.5
2 1 0.5
1.5 0.5 0
1.5 1 0
1.5 1 0.5
1.5 1 0
1.5 0.5 0
1 0.5 0
1.5 1 0.5
1 0.5 0
1.5 0.5 0
1.5 0.5 0.5
3 1 1
2.5 0.5 0.5
3 0.5 1
2.5 0.5 1
2.5 0.5 0.5
2 0 0
2.5 0 0.5
2 0 0.5
3 0.5 1
2.5 0 0.5
3 0 1
2.5 0 1
2.5 0.5 1
2 0 0.5
2.5 0 1
2 0 1
2.5 0.5 1
2.5 0.5 0.5
3 0.5 1
2.5 0 0.5
2.5 0.5 1
3 0.5 1
2.5 0 1
2.5 0 0.5
2.5 0.5 1
2.5 0 1
2 0 0.5
2.5 0 0.5
2.5 0.5 1
2 0 0.5
2.5 0.5 0.5
2.5 0 0.5
2 0 0
2.5 0.5 0.5
2.5 0 0.5
2.5 0 0
2.5 0.5 0.5
3 1 1
3 0.5 1
3 0.5 0.5
2.5 0 0.5
3 0.5 1
3 0 1
3 0 0.5
2.5 0 0
3 0.5 0.5
3 0 0.5
3 0 0
2.5 0 0.5
2.5 0.5 0.5
3 0.5 0.5
2.5 0 0
2.5 0 0.5
2.5 0 0
3 0.5 0.5
3 0 0.5
2.5 0 0.5
3 0 0.5
3 0.5 0.5
3 0.5 1
2.5 0 0.5
3 0.5 1
3 0.5 0.5
2.5 0.5 0.5
3 1 1
2.5 0.5 0.5
3 1 0.5
3 0.5 0.5
2.5 0.5 0.5
2 0 0
2.5 0.5 0
2.5 0 0
3 1 0.5
2.5 0.5 0
3 1 0
3 0.5 0
3 0.5 0.5
2.5 0 0
3 0.5 0
3 0 0
3 0.5 0.5
2.5 0.5 0.5
3 1 0.5
2.5 0.5 0
3 0.5 0.5
3 1 0.5
3 0.5 0
2.5 0.5 0
3 0.5 0.5
3 0.5 0
2.5 0 0
2.5 0.5 0
3 0.5 0.5
2.5 0 0
2.5 0.5 0.5
2.5 0.5 0
3 1 1
2.5 0.5 0.5
2.5 0.5 1
2.5 1 1
2.5 0.5 0.5
2 0 0
2 0 0.5
2 0.5 0.5
2.5 0.5 1
2 0 0.5
2 0 1
2 0.5 1
2.5 1 1
2 0.5 0.5
2 0.5 1
2 1 1
2.5 0.5 1
2.5 0.5 0.5
2 0.5 0.5
2.5 1 1
2.5 0.5 1
2.5 1 1
2 0.5 0.5
2 0.5 1
2.5 0.5 1
2 0.5 1
2 0.5 0.5
2 0 0.5
2.5 0.5 1
2 0 0.5
2 0.5 0.5
2.5 0.5 0.5
2 0 0
2.5 0.5 0.5
2 0.5 0
2 0.5 0.5
2.5 0.5 0.5
3 1 1
2.5 1 0.5
2.5 1 1
2 0.5 0
2.5 1 0.5
2 1 0
2 1 0.5
2 0.5 0.5
2.5 1 1
2 1 0.5
2 1 1
2 0.5 0.5
2.5 0.5 0.5
2 0.5 0
2.5 1 0.5
2 0.5 0.5
2 0.5 0
2 1 0.5
2.5 1 0.5
2 0.5 0.5
2 1 0.5
2.5 1 1
2.5 1 0.5
2 0.5 0.5
2.5 1 1
2.5 0.5 0.5
2.5 1 0.5
3 1 1
2.5 0.5 0.5
2.5 1 0.5
3 1 0.5
2.5 0.5 0.5
2 0 0
2 0.5 0
2.5 0.5 0
2.5 1 0.5
2 0.5 0
2 1 0
2.5 1 0
3 1 0.5
2.5 0.5 0
2.5 1 0
3 1 0
2.5 1 0.5
2.5 0.5 0.5
2.5 0.5 0
3 1 0.5
2.5 1 0.5
3 1 0.5
2.5 0.5 0
2.5 1 0
2.5 1 0.5
2.5 1 0
2.5 0.5 0
2 0.5 0
2.5 1 0.5
2 0.5 0
2.5 0.5 0
2.5 0.5 0.5
4 1 1
3.5 0.5 0.5
4 0.5 1
3.5 0.5 1
3.5 0.5 0.5
3 0 0
3.5 0 0.5
3 0 0.5
4 0.5 1
3.5 0 0.5
4 0 1
3.5 0 1
3.5 0.5 1
3 0 0.5
3.5 0 1
3 0 1
3.5 0.5 1
3.5 0.5 0.5
4 0.5 1
3.5 0 0.5
3.5 0.5 1
4 0.5 1
3.5 0 1
3.5 0 0.5
3.5 0.5 1
3.5 0 1
3 0 0.5
3.5 0 0.5
3.5 0.5 1
3 0 0.5
3.5 0.5 0.5
3.5 0 0.5
3 0 0
3.5 0.5 0.5
3.5 0 0.5
3.5 0 0
3.5 0.5 0.5
4 1 1
4 0.5 1
4 0.5 0.5
3.5 0 0.5
4 0.5 1
4 0 1
4 0 0.5
3.5 0 0
4 0.5 0.5
4 0 0.5
4 0 0
3.5 0 0.5
3.5 0.5 0.5
4 0.5 0.5
3.5 0 0
3.5 0 0.5
3.5 0 0
4 0.5 0.5
4 0 0.5
3.5 0 0.5
4 0 0.5
4 0.5 0.5
4 0.5 1
3.5 0 0.5
4 0.5 1
4 0.5 0.5
3.5 0.5 0.5
4 1 1
3.5 0.5 0.5
4 1 0.5
4 0.5 0.5
3.5 0.5 0.5
3 0 0
3.5 0.5 0
3.5 0 0
4 1 0.5
3.5 0.5 0
4 1 0
4 0.5 0
4 0.5 0.5
3.5 0 0
4 0.5 0
4 0 0
4 0.5 0.5
3.5 0.5 0.5
4 1 0.5
3.5 0.5 0
4 0.5 0.5
4 1 0.5
4 0.5 0
3.5 0.5 0
4 0.5 0.5
4 0.5 0
3.5 0 0
3.5 0.5 0
4 0.5 0.5
3.5 0 0
3.5 0.5 0.5
3.5 0.5 0
4 1 1
3.5 0.5 0.5
3.5 0.5 1
3.5 1 1
3.5 0.5 0.5
3 0 0
3 0 0.5
3 0.5 0.5
3.5 0.5 1
3 0 0.5
3 0 1
3 0.5 1
3.5 1 1
3 0.5 0.5
3 0.5 1
3 1 1
3.5 0.5 1
3.5 0.5 0.5
3 0.5 0.5
3.5 1 1
3.5 0.5 1
3.5 1 1
3 0.5 0.5
3 0.5 1
3.5 0.5 1
3 0.5 1
3 0.5 0.5
3 0 0.5
3.5 0.5 1
3 0 0.5
3 0.5 0.5
3.5 0.5 0.5
3 0 0
3.5 0.5 0.5
3 0.5 0
3 0.5 0.5
3.5 0.5 0.5
4 1 1
3.5 1 0.5
3.5 1 1
3 0.5 0
3.5 1 0.5
3 1 0
3 1 0.5
3 0.5 0.5
3.5 1 1
3 1 0.5
3 1 1
3 0.5 0.5
3.5 0.5 0.5
3 0.5 0
3.5 1 0.5
3 0.5 0.5
3 0.5 0
3 1 0.5
3.5 1 0.5
3 0.5 0.5
3 1 0.5
3.5 1 1
3.5 1 0.5
3 0.5 0.5
3.5 1 1
3.5 0.5 0.5
3.5 1 0.5
4 1 1
3.5 0.5 0.5
3.5 1 0.5
4 1 0.5
3.5 0.5 0.5
3 0 0
3 0.5 0
3.5 0.5 0
3.5 1 0.5
3 0.5 0
3 1 0
3.5 1 0
4 1 0.5
3.5 0.5 0
3.5 1 0
4 1 0
3.5 1 0.5
3.5 0.5 0.5
3.5 0.5 0
4 1 0.5
3.5 1 0.5
4 1 0.5
3.5 0.5 0
3.5 1 0
3.5 1 0.5
3.5 1 0
3.5 0.5 0
3 0.5 0
3.5 1 0.5
3 0.5 0
3.5 0.5 0
3.5 0.5 0.5
5 1 1
4.5 0.5 0.5
5 0.5 1
4.5 0.5 1
4.5 0.5 0.5
4 0 0
4.5 0 0.5
4 0 0.5
5 0.5 1
4.5 0 0.5
5 0 1
4.5 0 1
4.5 0.5 1
4 0 0.5
4.5 0 1
4 0 1
4.5 0.5 1
4.5 0.5 0.5
5 0.5 1
4.5 0 0.5
4.5 0.5 1
5 0.5 1
4.5 0 1
4.5 0 0.5
4.5 0.5 1
4.5 0 1
4 0 0.5
4.5 0 0.5
4.5 0.5 1
4 0 0.5
4.5 0.5 0.5
4.5 0 0.5
4 0 0
4.5 0.5 0.5
4.5 0 0.5
4.5 0 0
4.5 0.5 0.5
5 1 1
5 0.5 1
5 0.5 0.5
4.5 0 0.5
5 0.5 1
5 0 1
5 0 0.5
4.5 0 0
5 0.5 0.5
5 0 0.5
5 0 0
4.5 0 0.5
4.5 0.5 0.5
5 0.5 0.5
4.5 0 0
4.5 0 0.5
4.5 0 0
5 0.5 0.5
5 0 0.5
4.5 0 0.5
5 0 0.5
5 0.5 0.5
5 0.5 1
4.5 0 0.5
5 0.5 1
5 0.5 0.5
4.5 0.5 0.5
5 1 1
4.5 0.5 0.5
5 1 0.5
5 0.5 0.5
4.5 0.5 0.5
4 0 0
4.5 0.5 0
4.5 0 0
5 1 0.5
4.5 0.5 0
5 1 0
5 0.5 0
5 0.5 0.5
4.5 0 0
5 0.5 0
5 0 0
5 0.5 0.5
4.5 0.5 0.5
5 1 0.5
4.5 0.5 0
5 0.5 0.5
5 1 0.5
5 0.5 0
4.5 0.5 0
5 0.5 0.5
5 0.5 0
4.5 0 0
4.5 0.5 0
5 0.5 0.5
4.5 0 0
4.5 0.5 0.5
4.5 0.5 0
5 1 1
4.5 0.5 0.5
4.5 0.5 1
4.5 1 1
4.5 0.5 0.5
4 0 0
4 0 0.5
4 0.5 0.5
4.5 0.5 1
4 0 0.5
4 0 1
4 0.5 1
4.5 1 1
4 0.5 0.5
4 0.5 1
4 1 1
4.5 0.5 1
4.5 0.5 0.5
4 0.5 0.5
4.5 1 1
4.5 0.5 1
4.5 1 1
4 0.5 0.5
4 0.5 1
4.5 0.5 1
4 0.5 1
4 0.5 0.5
4 0 0.5
4.5 0.5 1
4 0 0.5
4 0.5 0.5
4.5 0.5 0.5
4 0 0
4.5 0.5 0.5
4 0.5 0
4 0.5 0.5
4.5 0.5 0.5
5 1 1
4.5 1 0.5
4.5 1 1
4 0.5 0
4.5 1 0.5
4 1 0
4 1 0.5
4 0.5 0.5
4.5 1 1
4 1 0.5
4 1 1
4 0.5 0.5
4.5 0.5 0.5
4 0.5 0
4.5 1 0.5
4 0.5 0.5
4 0.5 0
4 1 0.5
4.5 1 0.5
4 0.5 0.5
4 1 0.5
4.5 1 1
4.5 1 0.5
4 0.5 0.5
4.5 1 1
4.5 0.5 0.5
4.5 1 0.5
5 1 1
4.5 0.5 0.5
4.5 1 0.5
5 1 0.5
4.5 0.5 0.5
4 0 0
4 0.5 0
4.5 0.5 0
4.5 1 0.5
4 0.5 0
4 1 0
4.5 1 0
5 1 0.5
4.5 0.5 0
4.5 1 0
5 1 0
4.5 1 0.5
4.5 0.5 0.5
4.5 0.5 0
5 1 0.5
4.5 1 0.5
5 1 0.5
4.5 0.5 0
4.5 1 0
4.5 1 0.5
4.5 1 0
4.5 0.5 0
4 0.5 0
4.5 1 0.5
4 0.5 0
4.5 0.5 0
4.5 0.5 0.5
6 1 1
5.5 0.5 0.5
6 0.5 1
5.5 0.5 1
5.5 0.5 0.5
5 0 0
5.5 0 0.5
5 0 0.5
6 0.5 1
5.5 0 0.5
6 0 1
5.5 0 1
5.5 0.5 1
5 0 0.5
5.5 0 1
5 0 1
5.5 0.5 1
5.5 0.5 0.5
6 0.5 1
5.5 0 0.5
5.5 0.5 1
6 0.5 1
5.5 0 1
5.5 0 0.5
5.5 0.5 1
5.5 0 1
5 0 0.5
5.5 0 0.5
5.5 0.5 1
5 0 0.5
5.5 0.5 0.5
5.5 0 0.5
5 0 0
5.5 0.5 0.5
5.5 0 0.5
5.5 0 0
5.5 0.5 0.5
6 1 1
6 0.5 1
6 0.5 0.5
5.5 0 0.5
6 0.5 1
6 0 1
6 0 0.5
5.5 0 0
6 0.5 0.5
6 0 0.5
6 0 0
5.5 0 0.5
5.5 0.5 0.5
6 0.5 0.5
5.5 0 0
5.5 0 0.5
5.5 0 0
6 0.5 0.5
6 0 0.5
5.5 0 0.5
6 0 0.5
6 0.5 0.5
6 0.5 1
5.5 0 0.5
6 0.5 1
6 0.5 0.5
5.5 0.5 0.5
6 1 1
5.5 0.5 0.5
6 1 0.5
6 0.5 0.5
5.5 0.5 0.5
5 0 0
5.5 0.5 0
5.5 0 0
6 1 0.5
5.5 0.5 0
6 1 0
6 0.5 0
6 0.5 0.5
5.5 0 0
6 0.5 0
6 0 0
6 0.5 0.5
5.5 0.5 0.5
6 1 0.5
5.5 0.5 0
6 0.5 0.5
6 1 0.5
6 0.5 0
5.5 0.5 0
6 0.5 0.5
6 0.5 0
5.5 0 0
5.5 0.5 0
6 0.5 0.5
5.5 0 0
5.5 0.5 0.5
5.5 0.5 0
6 1 1
5.5 0.5 0.5
5.5 0.5 1
5.5 1 1
5.5 0.5 0.5
5 0 0
5 0 0.5
5 0.5 0.5
5.5 0.5 1
5 0 0.5
5 0 1
5 0.5 1
5.5 1 1
5 0.5 0.5
5 0.5 1
5 1 1
5.5 0.5 1
5.5 0.5 0.5
5 0.5 0.5
5.5 1 1
5.5 0.5 1
5.5 1 1
5 0.5 0.5
5 0.5 1
5.5 0.5 1
5 0.5 1
5 0.5 0.5
5 0 0.5
5.5 0.5 1
5 0 0.5
5 0.5 0.5
[...]
<CellData Scalars="attribute">
<DataArray type="Int32" Name="attribute" format="ascii">
1
1
1
1
1
1
1
1
1
1
1
1
1
1
1
1
1
1
1
1
1
1
1
1
1
1
1
1
1
1
1
1
1
1
1
1
1
1
1
1
1
1
1
1
1
1
1
1
1
1
1
1
1
1
1
1
1
1
1
1
1
1
1
1
1
1
1
1
1
1
1
1
1
1
1
1
1
1
1
1
1
1
1
1
1
1
1
1
1
1
1
1
1
1
1
1
1
1
1
1
1
1
1
1
1
1
1
1
1
1
1
1
1
1
1
1
1
1
1
1
1
1
1
1
1
1
1
1
1
1
1
1
1
1
1
1
1
1
1
1
1
1
1
1
1
1
1
1
1
1
1
1
1
1
1
1
1
1
1
1
1
1
1
1
1
1
1
1
1
1
1
1
1
1
1
1
1
1
1
1
1
1
1
1
1
1
1
1
1
1
1
1
2
2
2
2
2
2
2
2
2
2
2
2
2
2
2
2
2
2
2
2
2
2
2
2
2
2
2
2
2
2
2
2
2
2
2
2
2
2
2
2
2
2
2
2
2
2
2
2
2
2
2
2
2
2
2
2
2
2
2
2
2
2
2
2
2
2
2
2
2
2
2
2
2
2
2
2
2
2
2
2
2
2
2
2
2
2
2
2
2
2
2
2
2
2
2
2
2
2
2
2
2
2
2
2
2
2
2
2
2
2
2
2
2
2
2
2
2
2
2
2
2
2
2
2
2
2
2
2
2
2
2
2
2
2
2
2
2
2
2
2
2
2
2
2
2
2
2
2
2
2
2
2
2
2
2
2
2
2
2
2
2
2
2
2
2
2
2
2
2
2
2
2
2
2
2
2
2
2
2
2
2
2
2
2
2
2
2
2
2
2
2
2
</DataArray>
</CellData>
<PointData >
<DataArray type="Float64" Name="F" NumberOfComponents="3" ComponentName0="0" ComponentName1="1" ComponentName2="2" format="ascii" >
-0.604279095 -0.671381857 0 
0.0367399642 -0.0303627982 0.641019059 
-0.604279095 -0.0303627982 0 
0.0367399642 -0.0303627982 0 
0.214167412 0.19906792 0.019703114 
0.515099492 0.5 0.320635194 
0.214167412 0.5 0.019703114 
0.515099492 0.5 0.019703114 
-0.315597722 0.638583115 0 
-0.0881554327 0.866025404 0.227442289 
-0.315597722 0.866025404 0 
-0.0881554327 0.866025404 0 
0.216055126 0.197555367 0 
0.518499759 0.5 0.302444633 
0.216055126 0.5 0 
0.518499759 0.5 0 
0.0999913321 -0.0303627982 -0.412580046 
0.0999913321 -0.0303627982 0.408060572 
-0.720649286 -0.0303627982 -0.412580046 
0.0999913321 0.79027782 0.408060572 
0.0345600215 0.382217247 0 
-0.571963589 0.382217247 0 
0.0345600215 0.988740858 0 
0.0345600215 0.988740858 0.606523611 
0.0345600215 0.506537722 -0.181495104 
0.0345600215 0.866025404 -0.181495104 
0.394047703 0.866025404 0.177992577 
0.0345600215 0.866025404 0.177992577 
0.0999913321 0.0618549675 -0.626177859 
0.745872305 0.707735941 0.019703114 
0.0999913321 0.0618549675 0.019703114 
0.0999913321 0.707735941 0.019703114 
0.369012801 0.866025404 0.174548503 
0.0107401699 0.507752773 -0.183724128 
0.0107401699 0.866025404 -0.183724128 
0.0107401699 0.866025404 0.174548503 
-0.415793722 0.0386914885 0.188485373 
-0.768657495 -0.314172284 -0.1643784 
-0.768657495 0.0386914885 -0.1643784 
-0.768657495 0.0386914885 0.188485373 
-0.233678882 0.5 0.08191884 
-0.357355708 0.376323174 -0.041757986 
-0.357355708 0.5 -0.041757986 
-0.357355708 0.5 0.08191884 
-0.244098028 0.5 0.0867607312 
-0.368368606 0.375729422 -0.0375098468 
-0.368368606 0.5 -0.0375098468 
-0.368368606 0.5 0.0867607312 
0.0107401699 0.981970803 0.0039625317 
0.0107401699 0.375564657 0.0039625317 
-0.595665976 0.375564657 0.0039625317 
0.0107401699 0.981970803 0.610368678 
-0.105205229 0.866025404 -0.00202103706 
-0.105205229 0.866025404 0.22565353 
-0.332879796 0.638350837 -0.00202103706 
-0.332879796 0.866025404 -0.00202103706 
-0.531632872 0.416060123 -0.00202103706 
-0.757469746 0.416060123 -0.00202103706 
-0.757469746 0.190223249 -0.00202103706 
-0.757469746 0.190223249 -0.227857911 
-0.304106708 0.643586287 0.0039625317 
-0.909001507 0.0386914885 -0.600932266 
-0.909001507 0.0386914885 0.0039625317 
-0.304106708 0.0386914885 0.0039625317 
-0.367891688 -0.46959968 -0.319805796 
-0.073467852 -0.175175843 -0.0253819593 
-0.367891688 -0.46959968 -0.0253819593 
-0.367891688 -0.175175843 -0.0253819593 
0.0806080678 0.0468006289 -0.644676272 
0.725284339 0.691476901 0 
0.0806080678 0.0468006289 0 
0.0806080678 0.691476901 0 
-0.357252598 -0.46144575 -0.295795835 
-0.0614567622 -0.165649915 0 
-0.357252598 -0.46144575 0 
-0.357252598 -0.165649915 0 
-0.769096466 0.186683918 -0.226555351 
-0.542541115 0.413239269 0 
-0.769096466 0.186683918 0 
-0.769096466 0.413239269 0 
-0.620049121 -0.0437374514 -0.0253819593 
0.0221742783 -0.0437374514 -0.0253819593 
-0.620049121 -0.685960851 -0.0253819593 
0.0221742783 -0.0437374514 0.61684144 
-0.757412848 0.0256622655 -0.162745686 
-0.757412848 -0.3283956 -0.162745686 
-0.757412848 0.0256622655 0.19131218 
-0.403354982 0.0256622655 0.19131218 
-0.930118119 0.0256622655 -0.605337333 
-0.930118119 0.0256622655 0 
-0.324780786 0.630999598 0 
-0.324780786 0.0256622655 0 
-0.740120362 -0.0437374514 -0.415339577 
0.0806080678 0.776990979 0.405388854 
0.0806080678 -0.0437374514 -0.415339577 
0.0806080678 -0.0437374514 0.405388854 
-0.621572712 -0.688675474 0 
0.0209539464 -0.046148816 0.642526658 
0.0209539464 -0.046148816 0 
0.0209539464 -0.688675474 0 
0.198682693 0.183583201 0.024628445 
0.5 0.484900508 0.325945752 
0.5 0.484900508 0.024628445 
0.5 0.183583201 0.024628445 
0.197041485 0.178541726 0 
0.5 0.481500241 0.302958515 
0.5 0.481500241 0 
0.5 0.178541726 0 
0.633096011 -0.421747888 0 
0.866025404 -0.188818495 0.232929393 
0.866025404 -0.188818495 0 
0.866025404 -0.421747888 0 
0.0209539464 0.0439870753 -0.404118365 
0.0209539464 0.0439870753 0.418750426 
0.843822737 0.0439870753 0.418750426 
0.0209539464 -0.778881715 -0.404118365 
0.425072311 -0.0201769513 0 
0.425072311 -0.629771587 0 
1.03466695 -0.0201769513 0.609594636 
1.03466695 -0.0201769513 0 
0.505361919 -0.0201769513 -0.198718678 
0.866025404 -0.0201769513 -0.198718678 
0.866025404 -0.0201769513 0.161944807 
0.866025404 0.340486533 0.161944807 
0.0821234398 0.0439870753 -0.621957157 
0.728709042 0.690572677 0.024628445 
0.728709042 0.0439870753 0.024628445 
0.0821234398 0.0439870753 0.024628445 
0.866025404 0.318409656 0.1594549 
0.506773584 -0.0408421635 -0.199796919 
0.866025404 -0.0408421635 0.1594549 
0.866025404 -0.0408421635 -0.199796919 
0.096481314 -0.509940902 0.178734572 
-0.259603188 -0.866025404 -0.17734993 
0.096481314 -0.866025404 0.178734572 
0.096481314 -0.866025404 -0.17734993 
0.5 -0.369020649 0.0597390637 
0.369020649 -0.5 -0.0712402873 
0.5 -0.5 0.0597390637 
0.5 -0.5 -0.0712402873 
0.5 -0.36887804 0.0528698483 
0.36887804 -0.5 -0.0782521119 
0.5 -0.5 0.0528698483 
0.5 -0.5 -0.0782521119 
1.01936097 -0.0408421635 -0.00308587587 
0.410060192 -0.0408421635 -0.00308587587 
1.01936097 -0.0408421635 0.606214897 
0.410060192 -0.650142936 -0.00308587587 
0.866025404 -0.194177725 0.00197625298 
0.866025404 -0.194177725 0.234581988 
0.866025404 -0.42678346 0.00197625298 
0.633419669 -0.42678346 0.00197625298 
0.449106405 -0.633814798 0.00197625298 
0.449106405 -0.866025404 0.00197625298 
0.216895798 -0.866025404 -0.230234353 
0.216895798 -0.866025404 0.00197625298 
0.705071976 -0.377849226 -0.00308587587 
0.096481314 -0.986439888 -0.611676538 
0.096481314 -0.377849226 -0.00308587587 
0.096481314 -0.986439888 -0.00308587587 
-0.398292009 -0.5 -0.31603875 
-0.101920685 -0.203628676 -0.0196674267 
-0.101920685 -0.5 -0.0196674267 
-0.398292009 -0.5 -0.0196674267 
0.0613238282 0.0275163894 -0.645246675 
0.706570503 0.672763064 0 
0.706570503 0.0275163894 0 
0.0613238282 0.0275163894 0 
0.207988404 -0.866025404 -0.232272533 
0.440260936 -0.633752871 0 
0.440260936 -0.866025404 0 
0.207988404 -0.866025404 0 
-0.395806848 -0.5 -0.297698788 
-0.0981080594 -0.202301212 0 
-0.0981080594 -0.5 0 
-0.395806848 -0.5 0 
0.0052251945 -0.704361114 -0.0196674267 
0.0052251945 -0.0606865353 -0.0196674267 
0.0052251945 -0.0606865353 0.624007152 
-0.638449384 -0.704361114 -0.0196674267 
0.0777981031 -0.866025404 -0.181331717 
-0.279439776 -0.866025404 -0.181331717 
0.0777981031 -0.508787524 0.175906163 
0.0777981031 -0.866025404 0.175906163 
0.0777981031 -0.996215704 -0.608805425 
0.0777981031 -0.996215704 0 
0.0777981031 -0.387410279 0 
0.686603528 -0.387410279 0 
0.0052251945 -0.795331153 -0.407920874 
0.828072737 0.0275163894 0.414926669 
0.0052251945 0.0275163894 0.414926669 
0.0052251945 0.0275163894 -0.407920874 
0.655376688 0.66133585 0 
0.023763457 0.0297226196 -0.631613231 
0.655376688 0.0297226196 0 
0.023763457 0.0297226196 0 
-0.122882422 -0.214734317 -0.0185092297 
-0.408148105 -0.5 -0.303774913 
-0.122882422 -0.5 -0.0185092297 
-0.408148105 -0.5 -0.0185092297 
0.369637328 -0.648117272 0 
0.151729196 -0.866025404 -0.217908132 
0.369637328 -0.866025404 0 
0.151729196 -0.866025404 0 
-0.121373697 -0.213526343 0 
-0.407847354 -0.5 -0.286473657 
-0.121373697 -0.5 0 
-0.407847354 -0.5 0 
-0.0276978283 0.0297226196 0.410374507 
-0.0276978283 0.0297226196 -0.39956624 
0.782242918 0.0297226196 0.410374507 
-0.0276978283 -0.780218127 -0.39956624 
0.0413520297 -0.380651887 0 
0.637102712 -0.380651887 0 
0.0413520297 -0.97640257 0 
0.0413520297 -0.97640257 -0.595750683 
0.0413520297 -0.520405826 0.162725727 
0.0413520297 -0.866025404 0.162725727 
-0.304267548 -0.866025404 -0.18289385 
0.0413520297 -0.866025404 -0.18289385 
-0.0276978283 -0.0695086051 0.613622948 
-0.659830006 -0.701640783 -0.0185092297 
-0.0276978283 -0.0695086051 -0.0185092297 
-0.0276978283 -0.701640783 -0.0185092297 
-0.282507613 -0.866025404 -0.17813442 
0.0621035832 -0.521414208 0.166476776 
0.0621035832 -0.866025404 0.166476776 
0.0621035832 -0.866025404 -0.17813442 
0.468666501 -0.0372956667 -0.186710187 
0.813220221 0.307258054 0.157843533 
0.813220221 -0.0372956667 0.157843533 
0.813220221 -0.0372956667 -0.186710187 
0.287087433 -0.5 -0.0825498945 
0.402418268 -0.384669166 0.03278094 
0.402418268 -0.5 0.03278094 
0.402418268 -0.5 -0.0825498945 
0.29656311 -0.5 -0.0870297869 
0.412544384 -0.384018727 0.0289514865 
0.412544384 -0.5 0.0289514865 
0.412544384 -0.5 -0.0870297869 
0.0621035832 -0.972340643 -0.00575093795 
0.0621035832 -0.376658591 -0.00575093795 
0.657785635 -0.376658591 -0.00575093795 
0.0621035832 -0.972340643 -0.60143299 
0.168418822 -0.866025404 0.00304600859 
0.168418822 -0.866025404 -0.215174075 
0.386638906 -0.64780532 0.00304600859 
0.386638906 -0.866025404 0.00304600859 
0.584475851 -0.414404097 0.00304600859 
0.801987598 -0.414404097 0.00304600859 
0.801987598 -0.19689235 0.00304600859 
0.801987598 -0.19689235 0.220557756 
0.366117474 -0.632762474 -0.00575093795 
0.961584281 -0.0372956667 0.589715869 
0.961584281 -0.0372956667 -0.00575093795 
0.366117474 -0.0372956667 -0.00575093795 
0.412704781 0.462407956 0.312993436 
0.126599033 0.176302208 0.026887688 
0.412704781 0.462407956 0.026887688 
0.412704781 0.176302208 0.026887688 
-0.0105436815 -0.0567958395 0.631095144 
-0.641638826 -0.687890984 0 
-0.0105436815 -0.0567958395 0 
-0.0105436815 -0.687890984 0 
0.402424682 0.452212731 0.287443412 
0.114981271 0.16476932 0 
0.402424682 0.452212731 0 
0.402424682 0.16476932 0 
0.813062072 -0.194698153 0.21827206 
0.594790012 -0.412970213 0 
0.813062072 -0.194698153 0 
0.813062072 -0.412970213 0 
0.672888862 0.0417148667 0.026887688 
0.0401007337 0.0417148667 0.026887688 
0.672888862 0.674502995 0.026887688 
0.0401007337 0.0417148667 -0.605900441 
0.801991237 -0.0249711964 0.155990063 
0.801991237 0.320759383 0.155990063 
0.801991237 -0.0249711964 -0.189740516 
0.456260658 -0.0249711964 -0.189740516 
0.982789029 -0.0249711964 0.595910676 
0.982789029 -0.0249711964 0 
0.386878353 -0.620881872 0 
0.386878353 -0.0249711964 0 
0.799500873 0.0417148667 0.41262252 
-0.0105436815 -0.768329687 -0.397422034 
-0.0105436815 0.0417148667 0.41262252 
-0.0105436815 0.0417148667 -0.397422034 
0.681939721 0.687898884 0 
0.050020004 0.0559791665 -0.631919717 
0.050020004 0.0559791665 0 
0.050020004 0.687898884 0 
-0.0848010824 -0.176652977 -0.0272680474 
-0.368368606 -0.4602205 -0.310835571 
-0.368368606 -0.4602205 -0.0272680474 
-0.368368606 -0.176652977 -0.0272680474 
-0.0724512617 -0.164603908 0 
-0.357355708 -0.449508354 -0.284904446 
-0.357355708 -0.449508354 0 
-0.357355708 -0.164603908 0 
-0.552890841 0.41289682 0 
-0.768657495 0.197130166 -0.215766653 
-0.768657495 0.197130166 0 
-0.768657495 0.41289682 0 
0.050020004 -0.041555899 0.396813596 
0.050020004 -0.041555899 -0.412418002 
-0.759211594 -0.041555899 -0.412418002 
0.050020004 0.767675699 0.396813596 
-0.346793592 0.0247329156 0 
-0.346793592 0.618994069 0 
-0.941054745 0.0247329156 -0.594261153 
-0.941054745 0.0247329156 0 
-0.414268081 0.0247329156 0.189336823 
-0.757469746 0.0247329156 0.189336823 
-0.757469746 0.0247329156 -0.153864842 
-0.757469746 -0.31846875 -0.153864842 
0.000254877735 -0.041555899 0.603859782 
-0.630872951 -0.672683728 -0.0272680474 
-0.630872951 -0.041555899 -0.0272680474 
0.000254877735 -0.041555899 -0.0272680474 
-0.769096466 -0.305155409 -0.155770479 
-0.427078308 0.0368627492 0.186247679 
-0.769096466 0.0368627492 -0.155770479 
-0.769096466 0.0368627492 0.186247679 
-0.0225916433 0.520589663 -0.167309221 
0.322844098 0.866025404 0.17812652 
-0.0225916433 0.866025404 -0.167309221 
-0.0225916433 0.866025404 0.17812652 
-0.357252598 0.387213253 -0.0300362601 
-0.244465851 0.5 0.0827504866 
-0.357252598 0.5 -0.0300362601 
-0.357252598 0.5 0.0827504866 
-0.367891688 0.386527895 -0.0263689243 
-0.254419583 0.5 0.0871031804 
-0.367891688 0.5 -0.0263689243 
-0.367891688 0.5 0.0871031804 
-0.919533174 0.0368627492 0.00594575686 
-0.325728515 0.0368627492 0.00594575686 
-0.919533174 0.0368627492 -0.587858903 
-0.325728515 0.630667409 0.00594575686 
-0.757412848 0.198983076 -0.00328742656 
-0.757412848 0.198983076 -0.218266438 
-0.757412848 0.413962087 -0.00328742656 
-0.542433837 0.413962087 -0.00328742656 
-0.34481019 0.649457639 -0.00328742656 
-0.34481019 0.866025404 -0.00328742656 
-0.128242425 0.866025404 0.213280339 
-0.128242425 0.866025404 -0.00328742656 
-0.61745997 0.37680786 0.00594575686 
-0.0225916433 0.971676186 0.600814083 
-0.0225916433 0.37680786 0.00594575686 
-0.0225916433 0.971676186 0.00594575686 
0.450296825 0.5 0.305579247 
0.163359387 0.213062563 0.0186418095 
0.163359387 0.5 0.0186418095 
0.450296825 0.5 0.0186418095 
0.0166169555 -0.0296352025 0.629942942 
-0.613325986 -0.659578144 0 
-0.613325986 -0.0296352025 0 
0.0166169555 -0.0296352025 0 
-0.110987583 0.866025404 0.216228755 
-0.327216337 0.649796649 0 
-0.327216337 0.866025404 0 
-0.110987583 0.866025404 0 
0.450211951 0.5 0.288148806 
0.162063145 0.211851194 0 
0.162063145 0.5 0 
0.450211951 0.5 0 
0.0672561753 0.701823381 0.0186418095 
0.0672561753 0.0688703083 0.0186418095 
0.0672561753 0.0688703083 -0.614311263 
0.700209248 0.701823381 0.0186418095 
-0.00153400208 0.866025404 0.182843832 
0.344906977 0.866025404 0.182843832 
-0.00153400208 0.519584425 -0.163597147 
-0.00153400208 0.866025404 -0.163597147 
-0.00153400208 0.975478985 0.594926503 
-0.00153400208 0.975478985 0 
-0.00153400208 0.380552482 0 
-0.596460505 0.380552482 0 
0.0672561753 0.779482929 0.398930447 
-0.741861956 -0.0296352025 -0.410187685 
0.0672561753 -0.0296352025 -0.410187685 
0.0672561753 -0.0296352025 0.398930447 
-0.635620263 -0.665268862 0 
-0.000617606498 -0.0302662056 0.635002657 
-0.635620263 -0.0302662056 0 
-0.000617606498 -0.0302662056 0 
0.155816488 0.209027883 0.0192435484 
0.446788604 0.5 0.310215665 
0.155816488 0.5 0.0192435484 
0.446788604 0.5 0.0192435484 
-0.349411893 0.644703161 0 
-0.128089651 0.866025404 0.221322243 
-0.349411893 0.866025404 0 
-0.128089651 0.866025404 0 
0.154024343 0.20779224 0 
0.446232103 0.5 0.29220776 
0.154024343 0.5 0 
0.446232103 0.5 0 
0.0550859609 -0.0302662056 -0.410944018 
0.0550859609 -0.0302662056 0.402870625 
-0.758728682 -0.0302662056 -0.410944018 
0.0550859609 0.783548437 0.402870625 
-0.0138070793 0.380677812 0 
-0.613437242 0.380677812 0 
-0.0138070793 0.980307975 0 
-0.0138070793 0.980307975 0.599630163 
-0.0138070793 0.515387401 -0.167831423 
-0.0138070793 0.866025404 -0.167831423 
0.336830924 0.866025404 0.18280658 
-0.0138070793 0.866025404 0.18280658 
0.0550859609 0.0653182034 -0.61790062 
0.692230129 0.702462372 0.0192435484 
0.0550859609 0.0653182034 0.0192435484 
0.0550859609 0.702462372 0.0192435484 
0.314691427 0.866025404 0.178118488 
-0.0349154722 0.516418505 -0.171488411 
-0.0349154722 0.866025404 -0.171488411 
-0.0349154722 0.866025404 0.178118488 
-0.448436093 0.0377627889 0.18718417 
-0.795957349 -0.309758467 -0.160337086 
-0.795957349 0.0377627889 -0.160337086 
-0.795957349 0.0377627889 0.18718417 
-0.266875816 0.5 0.0825360771 
-0.385178663 0.381697153 -0.03576677 
-0.385178663 0.5 -0.03576677 
-0.385178663 0.5 0.0825360771 
-0.276548948 0.5 0.0870299468 
-0.395490692 0.381058255 -0.0319117981 
-0.395490692 0.5 -0.0319117981 
-0.395490692 0.5 0.0870299468 
-0.0349154722 0.975655049 0.00518513674 
-0.0349154722 0.37609036 0.00518513674 
-0.634480161 0.37609036 0.00518513674 
-0.0349154722 0.975655049 0.604749826 
-0.144545117 0.866025404 -0.00258747822 
-0.144545117 0.866025404 0.219033777 
-0.366166373 0.644404148 -0.00258747822 
-0.366166373 0.866025404 -0.00258747822 
-0.564344687 0.414876445 -0.00258747822 
-0.784825417 0.414876445 -0.00258747822 
-0.784825417 0.194395716 -0.00258747822 
-0.784825417 0.194395716 -0.223068207 
-0.342599527 0.636621605 0.00518513674 
-0.941458344 0.0377627889 -0.59367368 
-0.941458344 0.0377627889 0.00518513674 
-0.342599527 0.0377627889 0.00518513674 
-0.395439525 -0.464908951 -0.315487569 
-0.106366112 -0.175835538 -0.0264141562 
-0.395439525 -0.464908951 -0.0264141562 
-0.395439525 -0.175835538 -0.0264141562 
0.0377189237 0.0518164219 -0.636090494 
0.673809418 0.687906916 0 
0.0377189237 0.0518164219 0 
0.0377189237 0.687906916 0 
-0.385178303 -0.455207276 -0.290415884 
-0.094762419 -0.164791392 0 
-0.385178303 -0.455207276 0 
-0.385178303 -0.164791392 0 
-0.796008391 0.191737517 -0.221232536 
-0.574775855 0.412970053 0 
-0.796008391 0.191737517 0 
-0.796008391 0.412970053 0 
-0.652753767 -0.0422917188 -0.0264141562 
-0.0165732657 -0.0422917188 -0.0264141562 
-0.652753767 -0.67847222 -0.0264141562 
-0.0165732657 -0.0422917188 0.609766345 
-0.784825211 0.0254228675 -0.1584856 
-0.784825211 -0.323276992 -0.1584856 
-0.784825211 0.0254228675 0.190214259 
-0.436125351 0.0254228675 0.190214259 
-0.96232304 0.0254228675 -0.599311813 
-0.96232304 0.0254228675 0 
-0.363011227 0.624734681 0 
-0.363011227 0.0254228675 0 
-0.776208169 -0.0422917188 -0.413196942 
0.0377189237 0.771635374 0.400730151 
0.0377189237 -0.0422917188 -0.413196942 
0.0377189237 -0.0422917188 0.400730151 
-0.658258881 -0.68790748 0 
-0.0224866765 -0.0521352756 0.635772204 
-0.0224866765 -0.0521352756 0 
-0.0224866765 -0.68790748 0 
0.12249192 0.175703315 0.0262835577 
0.412544384 0.465755779 0.316336022 
0.412544384 0.465755779 0.0262835577 
0.412544384 0.175703315 0.0262835577 
0.11102641 0.164794306 0 
0.402418268 0.456186164 0.291391858 
0.402418268 0.456186164 0 
0.402418268 0.164794306 0 
0.591020573 -0.412971392 0 
0.813220221 -0.190771744 0.222199648 
0.813220221 -0.190771744 0 
0.813220221 -0.412971392 0 
-0.0224866765 0.0423542777 -0.400979268 
-0.0224866765 0.0423542777 0.413261143 
0.791753735 0.0423542777 0.413261143 
-0.0224866765 -0.771886134 -0.400979268 
0.378492592 -0.0255513095 0 
0.378492592 -0.625499374 0 
0.978440656 -0.0255513095 0.599948064 
0.978440656 -0.0255513095 0 
0.452313275 -0.0255513095 -0.190345616 
0.801987598 -0.0255513095 -0.190345616 
0.801987598 -0.0255513095 0.159328706 
0.801987598 0.324123013 0.159328706 
0.0321220352 0.0423542777 -0.610536856 
0.668942449 0.679174692 0.0262835577 
0.668942449 0.0423542777 0.0262835577 
0.0321220352 0.0423542777 0.0262835577 
0.813062072 0.31060417 0.161184412 
0.46456174 -0.0378961621 -0.18731592 
0.813062072 -0.0378961621 0.161184412 
0.813062072 -0.0378961621 -0.18731592 
0.0501477947 -0.516736779 0.171170701 
-0.299140831 -0.866025404 -0.178117924 
0.0501477947 -0.866025404 0.171170701 
0.0501477947 -0.866025404 -0.178117924 
0.402424682 -0.380720912 0.0367489456 
0.283145595 -0.5 -0.0825301422 
0.402424682 -0.5 0.0367489456 
0.402424682 -0.5 -0.0825301422 
0.412704781 -0.38009109 0.0328803019 
0.292795871 -0.5 -0.0870286076 
0.412704781 -0.5 0.0328803019 
0.412704781 -0.5 -0.0870286076 
0.957648605 -0.0378961621 -0.00512056703 
0.358149776 -0.0378961621 -0.00512056703 
0.957648605 -0.0378961621 0.594378262 
0.358149776 -0.637394991 -0.00512056703 
0.801991237 -0.19355353 0.00246095862 
0.801991237 -0.19355353 0.223916328 
0.801991237 -0.415008899 0.00246095862 