<?xml version="1.0"?>
<VTKFile type="UnstructuredGrid" version="0.1" byte_order="LittleEndian" header_type="UInt32" compressor="vtkZLibDataCompressor">
  <UnstructuredGrid>
    <Piece NumberOfPoints="6" NumberOfCells="2">
      <PointData>
        <DataArray type="Float64" Name="aux" format="ascii" RangeMin="0" RangeMax="0">
          0 0 0 0 0 0
        </DataArray>
        <DataArray type="Float64" Name="u" format="ascii" RangeMin="0.074429858005" RangeMax="1">
          0.074429858072 0.074429858005 1 1 0.074429858227 1
        </DataArray>
      </PointData>
      <CellData>
        <DataArray type="Int32" Name="libmesh_elem_id" format="ascii" RangeMin="1" RangeMax="3">
          1 3
        </DataArray>
        <DataArray type="Int32" Name="subdomain_id" format="ascii" RangeMin="0" RangeMax="0">
          0 0
        </DataArray>
        <DataArray type="Int32" Name="processor_id" format="ascii" RangeMin="0" RangeMax="0">
          0 0
        </DataArray>
      </CellData>
      <Points>
        <DataArray type="Float64" Name="Points" NumberOfComponents="3" format="ascii" RangeMin="0.5" RangeMax="1.4142135624">
          0.5 0 0 0.5 0.5 0
          1 0 0 1 0.5 0
          0.5 1 0 1 1 0
        </DataArray>
      </Points>
      <Cells>
        <DataArray type="Int64" Name="connectivity" format="ascii" RangeMin="0" RangeMax="5">
          0 2 3 1 1 3
          5 4
        </DataArray>
        <DataArray type="Int64" Name="offsets" format="ascii" RangeMin="4" RangeMax="8">
          4 8
        </DataArray>
        <DataArray type="UInt8" Name="types" format="ascii" RangeMin="9" RangeMax="9">
          9 9
        </DataArray>
      </Cells>
    </Piece>
  </UnstructuredGrid>
</VTKFile>
