<VTKFile type="UnstructuredGrid" version="2.2" byte_order="LittleEndian">
<UnstructuredGrid>
<Piece NumberOfPoints="80" NumberOfCells="20">
<Points>
<DataArray type="Float64" NumberOfComponents="3" format="ascii">
0 0 0
0.5 0 0
0.154508 0.475529 0
0.654509 0.475529 0
0 0 0
0.154508 0.475529 0
-0.404508 0.293893 0
-0.25 0.769421 0
0 0 0
-0.404508 0.293893 0
-0.404508 -0.293893 0
-0.809016 0 0
0 0 0
-0.404508 -0.293893 0
0.154508 -0.475529 0
-0.25 -0.76942 0
0 0 0
0.154508 -0.475529 0
0.5 0 0
0.654509 -0.475529 0
0.5 0 0
1 0 0
0.654509 0.475529 0
1.15451 0.475529 0
0.654509 0.475529 0
1.15451 0.475529 0
0.809019 0.951057 0
1.30902 0.951057 0
0.154508 0.475529 0
0.654509 0.475529 0
0.309017 0.951057 0
0.809019 0.951057 0
0.154508 0.475529 0
0.309017 0.951057 0
-0.25 0.769421 0
-0.0954915 1.24495 0
-0.25 0.769421 0
-0.0954915 1.24495 0
-0.654508 1.06331 0
-0.5 1.53884 0
-0.404508 0.293893 0
-0.25 0.769421 0
-0.809017 0.587785 0
-0.654508 1.06331 0
-0.404508 0.293893 0
-0.809017 0.587785 0
-0.809016 0 0
-1.21352 0.293893 0
-0.809016 0 0
-1.21352 0.293893 0
-1.21352 -0.293892 0
-1.61803 0 0
-0.404508 -0.293893 0
-0.809016 0 0
-0.809017 -0.587785 0
-1.21352 -0.293892 0
-0.404508 -0.293893 0
-0.809017 -0.587785 0
-0.25 -0.76942 0
-0.654508 -1.06331 0
-0.25 -0.76942 0
-0.654508 -1.06331 0
-0.0954915 -1.24495 0
-0.5 -1.53884 0
0.154508 -0.475529 0
-0.25 -0.76942 0
0.309017 -0.951057 0
-0.0954915 -1.24495 0
0.154508 -0.475529 0
0.309017 -0.951057 0
0.654509 -0.475529 0
0.809019 -0.951057 0
0.654509 -0.475529 0
0.809019 -0.951057 0
1.15451 -0.475529 0
1.30902 -0.951057 0
0.5 0 0
0.654509 -0.475529 0
1 0 0
1.15451 -0.475529 0
</DataArray>
</Points>
<Cells>
<DataArray type="Int32" Name="connectivity" format="ascii">
0 1 3 2 
4 5 7 6 
8 9 11 10 
12 13 15 14 
16 17 19 18 
20 21 23 22 
24 25 27 26 
28 29 31 30 
32 33 35 34 
36 37 39 38 
40 41 43 42 
44 45 47 46 
48 49 51 50 
52 53 55 54 
56 57 59 58 
60 61 63 62 
64 65 67 66 
68 69 71 70 
72 73 75 74 
76 77 79 78 
</DataArray>
<DataArray type="Int32" Name="offsets" format="ascii">
4
8
12
16
20
24
28
32
36
40
44
48
52
56
60
64
68
72
76
80
</DataArray>
<DataArray type="UInt8" Name="types" format="ascii">
9
9
9
9
9
9
9
9
9
9
9
9
9
9
9
9
9
9
9
9
</DataArray>
</Cells>
<CellData Scalars="attribute">
<DataArray type="Int32" Name="attribute" format="ascii">
1
1
1
1
1
1
1
1
1
1
1
1
1
1
1
1
1
1
1
1
</DataArray>
</CellData>
<PointData >
<DataArray type="Float64" Name="concentration" NumberOfComponents="1"  format="ascii" >
0
0
0
0
0
0
0
0
0
0
0
0
0
0
0
0
0
0
0
0
0
0
0
0
0
0
0
0
0
0
0
0
0
0
0
0
0
0
0
0
0
0
0
0
0
0
0
0
0
0
0
0
0
0
0
0
0
0
0
0
0
0
0
0
0
0
0
0
0
0
0
0
0
0
0
0
0
0
0
0
</DataArray>
</PointData>
</Piece>
</UnstructuredGrid>
</VTKFile>
