<VTKFile type="UnstructuredGrid" version="2.2" byte_order="LittleEndian">
<UnstructuredGrid>
<Piece NumberOfPoints="408" NumberOfCells="51">
<Points>
<DataArray type="Float64" NumberOfComponents="3" format="ascii">
-0.25 -0.433012702 0.166666667
0 -0.5 0.166666667
-0.25 -0.341506351 0.166666667
-0.1 -0.4 0.166666667
-0.25 -0.433012702 0.5
0 -0.5 0.5
-0.25 -0.341506351 0.5
-0.1 -0.4 0.5
-0.433012702 -0.25 0.166666667
-0.25 -0.433012702 0.166666667
-0.359807621 -0.25 0.166666667
-0.25 -0.341506351 0.166666667
-0.433012702 -0.25 0.5
-0.25 -0.433012702 0.5
-0.359807621 -0.25 0.5
-0.25 -0.341506351 0.5
-0.5 0 0.166666667
-0.433012702 -0.25 0.166666667
-0.375 -0.125 0.166666667
-0.359807621 -0.25 0.166666667
-0.5 0 0.5
-0.433012702 -0.25 0.5
-0.375 -0.125 0.5
-0.359807621 -0.25 0.5
-0.25 -0.433012702 -0.166666667
0 -0.5 -0.166666667
-0.25 -0.341506351 -0.166666667
-0.1 -0.4 -0.166666667
-0.25 -0.433012702 0.166666667
0 -0.5 0.166666667
-0.25 -0.341506351 0.166666667
-0.1 -0.4 0.166666667
-0.433012702 -0.25 -0.166666667
-0.25 -0.433012702 -0.166666667
-0.359807621 -0.25 -0.166666667
-0.25 -0.341506351 -0.166666667
-0.433012702 -0.25 0.166666667
-0.25 -0.433012702 0.166666667
-0.359807621 -0.25 0.166666667
-0.25 -0.341506351 0.166666667
-0.5 0 -0.166666667
-0.433012702 -0.25 -0.166666667
-0.375 -0.125 -0.166666667
-0.359807621 -0.25 -0.166666667
-0.5 0 0.166666667
-0.433012702 -0.25 0.166666667
-0.375 -0.125 0.166666667
-0.359807621 -0.25 0.166666667
-0.25 -0.433012702 -0.5
0 -0.5 -0.5
-0.25 -0.341506351 -0.5
-0.1 -0.4 -0.5
-0.25 -0.433012702 -0.166666667
0 -0.5 -0.166666667
-0.25 -0.341506351 -0.166666667
-0.1 -0.4 -0.166666667
-0.433012702 -0.25 -0.5
-0.25 -0.433012702 -0.5
-0.359807621 -0.25 -0.5
-0.25 -0.341506351 -0.5
-0.433012702 -0.25 -0.166666667
-0.25 -0.433012702 -0.166666667
-0.359807621 -0.25 -0.166666667
-0.25 -0.341506351 -0.166666667
-0.5 0 -0.5
-0.433012702 -0.25 -0.5
-0.375 -0.125 -0.5
-0.359807621 -0.25 -0.5
-0.5 0 -0.166666667
-0.433012702 -0.25 -0.166666667
-0.375 -0.125 -0.166666667
-0.359807621 -0.25 -0.166666667
0 -0.833333333 -0.5
0 -0.666666667 -0.5
0 -0.833333333 -0.166666667
0 -0.666666667 -0.166666667
0.416666667 -0.721687836 -0.5
0.333333333 -0.577350269 -0.5
0.416666667 -0.721687836 -0.166666667
0.333333333 -0.577350269 -0.166666667
0 -1 -0.5
0 -0.833333333 -0.5
0 -1 -0.166666667
0 -0.833333333 -0.166666667
0.5 -0.866025404 -0.5
0.416666667 -0.721687836 -0.5
0.5 -0.866025404 -0.166666667
0.416666667 -0.721687836 -0.166666667
0 -0.833333333 -0.5
0 -1 -0.5
0 -0.833333333 -0.166666667
0 -1 -0.166666667
-0.416666667 -0.721687836 -0.5
-0.5 -0.866025404 -0.5
-0.416666667 -0.721687836 -0.166666667
-0.5 -0.866025404 -0.166666667
0 -0.666666667 -0.5
0 -0.833333333 -0.5
0 -0.666666667 -0.166666667
0 -0.833333333 -0.166666667
-0.333333333 -0.577350269 -0.5
-0.416666667 -0.721687836 -0.5
-0.333333333 -0.577350269 -0.166666667
-0.416666667 -0.721687836 -0.166666667
0 -0.5 -0.5
0 -0.666666667 -0.5
0 -0.5 -0.166666667
0 -0.666666667 -0.166666667
-0.25 -0.433012702 -0.5
-0.333333333 -0.577350269 -0.5
-0.25 -0.433012702 -0.166666667
-0.333333333 -0.577350269 -0.166666667
0 -0.833333333 -0.166666667
0 -1 -0.166666667
0 -0.833333333 0.166666667
0 -1 0.166666667
-0.416666667 -0.721687836 -0.166666667
-0.5 -0.866025404 -0.166666667
-0.416666667 -0.721687836 0.166666667
-0.5 -0.866025404 0.166666667
0 -0.666666667 -0.166666667
0 -0.833333333 -0.166666667
0 -0.666666667 0.166666667
0 -0.833333333 0.166666667
-0.333333333 -0.577350269 -0.166666667
-0.416666667 -0.721687836 -0.166666667
-0.333333333 -0.577350269 0.166666667
-0.416666667 -0.721687836 0.166666667
0 -0.5 -0.166666667
0 -0.666666667 -0.166666667
0 -0.5 0.166666667
0 -0.666666667 0.166666667
-0.25 -0.433012702 -0.166666667
-0.333333333 -0.577350269 -0.166666667
-0.25 -0.433012702 0.166666667
-0.333333333 -0.577350269 0.166666667
0 -0.833333333 0.166666667
0 -1 0.166666667
0 -0.833333333 0.5
0 -1 0.5
-0.416666667 -0.721687836 0.166666667
-0.5 -0.866025404 0.166666667
-0.416666667 -0.721687836 0.5
-0.5 -0.866025404 0.5
0 -0.666666667 0.166666667
0 -0.833333333 0.166666667
0 -0.666666667 0.5
0 -0.833333333 0.5
-0.333333333 -0.577350269 0.166666667
-0.416666667 -0.721687836 0.166666667
-0.333333333 -0.577350269 0.5
-0.416666667 -0.721687836 0.5
0 -0.5 0.166666667
0 -0.666666667 0.166666667
0 -0.5 0.5
0 -0.666666667 0.5
-0.25 -0.433012702 0.166666667
-0.333333333 -0.577350269 0.166666667
-0.25 -0.433012702 0.5
-0.333333333 -0.577350269 0.5
-0.416666667 -0.721687836 -0.5
-0.5 -0.866025404 -0.5
-0.416666667 -0.721687836 -0.166666667
-0.5 -0.866025404 -0.166666667
-0.721687836 -0.416666667 -0.5
-0.866025404 -0.5 -0.5
-0.721687836 -0.416666667 -0.166666667
-0.866025404 -0.5 -0.166666667
-0.333333333 -0.577350269 -0.5
-0.416666667 -0.721687836 -0.5
-0.333333333 -0.577350269 -0.166666667
-0.416666667 -0.721687836 -0.166666667
-0.577350269 -0.333333333 -0.5
-0.721687836 -0.416666667 -0.5
-0.577350269 -0.333333333 -0.166666667
-0.721687836 -0.416666667 -0.166666667
-0.25 -0.433012702 -0.5
-0.333333333 -0.577350269 -0.5
-0.25 -0.433012702 -0.166666667
-0.333333333 -0.577350269 -0.166666667
-0.433012702 -0.25 -0.5
-0.577350269 -0.333333333 -0.5
-0.433012702 -0.25 -0.166666667
-0.577350269 -0.333333333 -0.166666667
-0.416666667 -0.721687836 -0.166666667
-0.5 -0.866025404 -0.166666667
-0.416666667 -0.721687836 0.166666667
-0.5 -0.866025404 0.166666667
-0.721687836 -0.416666667 -0.166666667
-0.866025404 -0.5 -0.166666667
-0.721687836 -0.416666667 0.166666667
-0.866025404 -0.5 0.166666667
-0.333333333 -0.577350269 -0.166666667
-0.416666667 -0.721687836 -0.166666667
-0.333333333 -0.577350269 0.166666667
-0.416666667 -0.721687836 0.166666667
-0.577350269 -0.333333333 -0.166666667
-0.721687836 -0.416666667 -0.166666667
-0.577350269 -0.333333333 0.166666667
-0.721687836 -0.416666667 0.166666667
-0.25 -0.433012702 -0.166666667
-0.333333333 -0.577350269 -0.166666667
-0.25 -0.433012702 0.166666667
-0.333333333 -0.577350269 0.166666667
-0.433012702 -0.25 -0.166666667
-0.577350269 -0.333333333 -0.166666667
-0.433012702 -0.25 0.166666667
-0.577350269 -0.333333333 0.166666667
-0.416666667 -0.721687836 0.166666667
-0.5 -0.866025404 0.166666667
-0.416666667 -0.721687836 0.5
-0.5 -0.866025404 0.5
-0.721687836 -0.416666667 0.166666667
-0.866025404 -0.5 0.166666667
-0.721687836 -0.416666667 0.5
-0.866025404 -0.5 0.5
-0.333333333 -0.577350269 0.166666667
-0.416666667 -0.721687836 0.166666667
-0.333333333 -0.577350269 0.5
-0.416666667 -0.721687836 0.5
-0.577350269 -0.333333333 0.166666667
-0.721687836 -0.416666667 0.166666667
-0.577350269 -0.333333333 0.5
-0.721687836 -0.416666667 0.5
-0.25 -0.433012702 0.166666667
-0.333333333 -0.577350269 0.166666667
-0.25 -0.433012702 0.5
-0.333333333 -0.577350269 0.5
-0.433012702 -0.25 0.166666667
-0.577350269 -0.333333333 0.166666667
-0.433012702 -0.25 0.5
-0.577350269 -0.333333333 0.5
-0.721687836 -0.416666667 -0.5
-0.866025404 -0.5 -0.5
-0.721687836 -0.416666667 -0.166666667
-0.866025404 -0.5 -0.166666667
-0.833333333 0 -0.5
-1 0 -0.5
-0.833333333 0 -0.166666667
-1 0 -0.166666667
-0.577350269 -0.333333333 -0.5
-0.721687836 -0.416666667 -0.5
-0.577350269 -0.333333333 -0.166666667
-0.721687836 -0.416666667 -0.166666667
-0.666666667 0 -0.5
-0.833333333 0 -0.5
-0.666666667 0 -0.166666667
-0.833333333 0 -0.166666667
-0.433012702 -0.25 -0.5
-0.577350269 -0.333333333 -0.5
-0.433012702 -0.25 -0.166666667
-0.577350269 -0.333333333 -0.166666667
-0.5 0 -0.5
-0.666666667 0 -0.5
-0.5 0 -0.166666667
-0.666666667 0 -0.166666667
-0.721687836 -0.416666667 -0.166666667
-0.866025404 -0.5 -0.166666667
-0.721687836 -0.416666667 0.166666667
-0.866025404 -0.5 0.166666667
-0.833333333 0 -0.166666667
-1 0 -0.166666667
-0.833333333 0 0.166666667
-1 0 0.166666667
-0.577350269 -0.333333333 -0.166666667
-0.721687836 -0.416666667 -0.166666667
-0.577350269 -0.333333333 0.166666667
-0.721687836 -0.416666667 0.166666667
-0.666666667 0 -0.166666667
-0.833333333 0 -0.166666667
-0.666666667 0 0.166666667
-0.833333333 0 0.166666667
-0.433012702 -0.25 -0.166666667
-0.577350269 -0.333333333 -0.166666667
-0.433012702 -0.25 0.166666667
-0.577350269 -0.333333333 0.166666667
-0.5 0 -0.166666667
-0.666666667 0 -0.166666667
-0.5 0 0.166666667
-0.666666667 0 0.166666667
-0.721687836 -0.416666667 0.166666667
-0.866025404 -0.5 0.166666667
-0.721687836 -0.416666667 0.5
-0.866025404 -0.5 0.5
-0.833333333 0 0.166666667
-1 0 0.166666667
-0.833333333 0 0.5
-1 0 0.5
-0.577350269 -0.333333333 0.166666667
-0.721687836 -0.416666667 0.166666667
-0.577350269 -0.333333333 0.5
-0.721687836 -0.416666667 0.5
-0.666666667 0 0.166666667
-0.833333333 0 0.166666667
-0.666666667 0 0.5
-0.833333333 0 0.5
-0.433012702 -0.25 0.166666667
-0.577350269 -0.333333333 0.166666667
-0.433012702 -0.25 0.5
-0.577350269 -0.333333333 0.5
-0.5 0 0.166666667
-0.666666667 0 0.166666667
-0.5 0 0.5
-0.666666667 0 0.5
-0.5 0 0.166666667
-0.666666667 0 0.166666667
-0.5 0 0.5
-0.666666667 0 0.5
-0.433012702 0.25 0.166666667
-0.577350269 0.333333333 0.166666667
-0.433012702 0.25 0.5
-0.577350269 0.333333333 0.5
-0.666666667 0 0.166666667
-0.833333333 0 0.166666667
-0.666666667 0 0.5
-0.833333333 0 0.5
-0.577350269 0.333333333 0.166666667
-0.721687836 0.416666667 0.166666667
-0.577350269 0.333333333 0.5
-0.721687836 0.416666667 0.5
-0.833333333 0 0.166666667
-1 0 0.166666667
-0.833333333 0 0.5
-1 0 0.5
-0.721687836 0.416666667 0.166666667
-0.866025404 0.5 0.166666667
-0.721687836 0.416666667 0.5
-0.866025404 0.5 0.5
-0.5 0 -0.166666667
-0.666666667 0 -0.166666667
-0.5 0 0.166666667
-0.666666667 0 0.166666667
-0.433012702 0.25 -0.166666667
-0.577350269 0.333333333 -0.166666667
-0.433012702 0.25 0.166666667
-0.577350269 0.333333333 0.166666667
-0.666666667 0 -0.166666667
-0.833333333 0 -0.166666667
-0.666666667 0 0.166666667
-0.833333333 0 0.166666667
-0.577350269 0.333333333 -0.166666667
-0.721687836 0.416666667 -0.166666667
-0.577350269 0.333333333 0.166666667
-0.721687836 0.416666667 0.166666667
-0.833333333 0 -0.166666667
-1 0 -0.166666667
-0.833333333 0 0.166666667
-1 0 0.166666667
-0.721687836 0.416666667 -0.166666667
-0.866025404 0.5 -0.166666667
-0.721687836 0.416666667 0.166666667
-0.866025404 0.5 0.166666667
-0.5 0 -0.5
-0.666666667 0 -0.5
-0.5 0 -0.166666667
-0.666666667 0 -0.166666667
-0.433012702 0.25 -0.5
-0.577350269 0.333333333 -0.5
-0.433012702 0.25 -0.166666667
-0.577350269 0.333333333 -0.166666667
-0.666666667 0 -0.5
-0.833333333 0 -0.5
-0.666666667 0 -0.166666667
-0.833333333 0 -0.166666667
-0.577350269 0.333333333 -0.5
-0.721687836 0.416666667 -0.5
-0.577350269 0.333333333 -0.166666667
-0.721687836 0.416666667 -0.166666667
-0.833333333 0 -0.5
-1 0 -0.5
-0.833333333 0 -0.166666667
-1 0 -0.166666667
-0.721687836 0.416666667 -0.5
-0.866025404 0.5 -0.5
-0.721687836 0.416666667 -0.166666667
-0.866025404 0.5 -0.166666667
-0.433012702 0.25 0.166666667
-0.577350269 0.333333333 0.166666667
-0.433012702 0.25 0.5
-0.577350269 0.333333333 0.5
-0.25 0.433012702 0.166666667
-0.333333333 0.577350269 0.166666667
-0.25 0.433012702 0.5
-0.333333333 0.577350269 0.5
-0.577350269 0.333333333 0.166666667
-0.721687836 0.416666667 0.166666667
-0.577350269 0.333333333 0.5
-0.721687836 0.416666667 0.5
-0.333333333 0.577350269 0.166666667
-0.416666667 0.721687836 0.166666667
-0.333333333 0.577350269 0.5
-0.416666667 0.721687836 0.5
-0.433012702 0.25 -0.166666667
-0.577350269 0.333333333 -0.166666667
-0.433012702 0.25 0.166666667
-0.577350269 0.333333333 0.166666667
-0.25 0.433012702 -0.166666667
-0.333333333 0.577350269 -0.166666667
-0.25 0.433012702 0.166666667
-0.333333333 0.577350269 0.166666667
-0.433012702 0.25 -0.5
-0.577350269 0.333333333 -0.5
-0.433012702 0.25 -0.166666667
-0.577350269 0.333333333 -0.166666667
-0.25 0.433012702 -0.5
-0.333333333 0.577350269 -0.5
-0.25 0.433012702 -0.166666667
-0.333333333 0.577350269 -0.166666667
</DataArray>
</Points>
<Cells>
<DataArray type="Int32" Name="connectivity" format="ascii">
0 1 3 2 4 5 7 6 
8 9 11 10 12 13 15 14 
16 17 19 18 20 21 23 22 
24 25 27 26 28 29 31 30 
32 33 35 34 36 37 39 38 
40 41 43 42 44 45 47 46 
48 49 51 50 52 53 55 54 
56 57 59 58 60 61 63 62 
64 65 67 66 68 69 71 70 
72 73 75 74 76 77 79 78 
80 81 83 82 84 85 87 86 
88 89 91 90 92 93 95 94 
96 97 99 98 100 101 103 102 
104 105 107 106 108 109 111 110 
112 113 115 114 116 117 119 118 
120 121 123 122 124 125 127 126 
128 129 131 130 132 133 135 134 
136 137 139 138 140 141 143 142 
144 145 147 146 148 149 151 150 
152 153 155 154 156 157 159 158 
160 161 163 162 164 165 167 166 
168 169 171 170 172 173 175 174 
176 177 179 178 180 181 183 182 
184 185 187 186 188 189 191 190 
192 193 195 194 196 197 199 198 
200 201 203 202 204 205 207 206 
208 209 211 210 212 213 215 214 
216 217 219 218 220 221 223 222 
224 225 227 226 228 229 231 230 
232 233 235 234 236 237 239 238 
240 241 243 242 244 245 247 246 
248 249 251 250 252 253 255 254 
256 257 259 258 260 261 263 262 
264 265 267 266 268 269 271 270 
272 273 275 274 276 277 279 278 
280 281 283 282 284 285 287 286 
288 289 291 290 292 293 295 294 
296 297 299 298 300 301 303 302 
304 305 307 306 308 309 311 310 
312 313 315 314 316 317 319 318 
320 321 323 322 324 325 327 326 
328 329 331 330 332 333 335 334 
336 337 339 338 340 341 343 342 
344 345 347 346 348 349 351 350 
352 353 355 354 356 357 359 358 
360 361 363 362 364 365 367 366 
368 369 371 370 372 373 375 374 
376 377 379 378 380 381 383 382 
384 385 387 386 388 389 391 390 
392 393 395 394 396 397 399 398 
400 401 403 402 404 405 407 406 
</DataArray>
<DataArray type="Int32" Name="offsets" format="ascii">
8
16
24
32
40
48
56
64
72
80
88
96
104
112
120
128
136
144
152
160
168
176
184
192
200
208
216
224
232
240
248
256
264
272
280
288
296
304
312
320
328
336
344
352
360
368
376
384
392
400
408
</DataArray>
<DataArray type="UInt8" Name="types" format="ascii">
12
12
12
12
12
12
12
12
12
12
12
12
12
12
12
12
12
12
12
12
12
12
12
12
12
12
12
12
12
12
12
12
12
12
12
12
12
12
12
12
12
12
12
12
12
12
12
12
12
12
12
</DataArray>
</Cells>
<CellData Scalars="attribute">
<DataArray type="Int32" Name="attribute" format="ascii">
1
1
1
1
1
1
1
1
1
2
2
2
2
2
2
2
2
2
2
2
2
2
2
2
2
2
2
2
2
2
2
2
2
2
2
2
2
2
2
2
2
2
2
2
2
2
2
2
2
2
2
</DataArray>
</CellData>
<PointData >
<DataArray type="Float64" Name="a_field" NumberOfComponents="3" ComponentName0="0" ComponentName1="1" ComponentName2="2" format="ascii" >
0.00651985592 0.00746869021 0.0872548287 
0.00197052512 0.00375922325 0.0878278228 
0.0030355407 0.00746869021 0.104740941 
0.00134512677 0.0031338249 0.105656199 
0 0 0.0872548287 
0 0 0.0878278228 
0 0 0.104740941 
0 0 0.105656199 
0.00344932566 0.00303672658 0.0865339187 
0.00333010311 0.00746869021 0.0872548287 
0.00344932566 0.00202038286 0.100968325 
0.00798958179 0.00746869021 0.104740941 
0 0 0.0865339187 
0 0 0.0872548287 
0 0 0.100968325 
0 0 0.104740941 
0.00456919869 -0.000658871995 0.0886072234 
0.00344932566 0.0011898373 0.0865339187 
0.00794904024 0.00272096956 0.110120758 
0.00344932566 0.00217407861 0.100968325 
0 0 0.0886072234 
0 0 0.0865339187 
0 0 0.110120758 
0 0 0.100968325 
-0.0127265839 -0.0180863022 0.0767568492 
-0.00211666124 -0.0098460663 0.0821331832 
-0.00487286804 -0.0180863022 0.103308592 
-0.00136730945 -0.00909671451 0.1033536 
0.00651985592 0.00746869021 0.0767568492 
0.00197052512 0.00375922325 0.0821331832 
0.0030355407 0.00746869021 0.103308592 
0.00134512677 0.0031338249 0.1033536 
-0.017299785 -0.0112446961 0.0782602229 
-0.00939066414 -0.0180863022 0.0767568492 
-0.017299785 -0.019434899 0.0980089743 
-0.0161759544 -0.0180863022 0.103308592 
0.00344932566 0.00303672658 0.0782602229 
0.00333010311 0.00746869021 0.0767568492 
0.00344932566 0.00202038286 0.0980089743 
0.00798958179 0.00746869021 0.103308592 
-0.00759628906 -0.00254297876 0.0812589967 
-0.017299785 -0.0127793067 0.0782602229 
-0.00608950201 -0.0010361917 0.108588576 
-0.017299785 -0.00239867864 0.0980089743 
0.00456919869 -0.000658871995 0.0812589967 
0.00344932566 0.0011898373 0.0782602229 
0.00794904024 0.00272096956 0.108588576 
0.00344932566 0.00217407861 0.0980089743 
0 0 0.0895270771 
0 0 0.0900039378 
0 0 0.104098453 
0 0 0.106050102 
-0.0127265839 -0.0180863022 0.0895270771 
-0.00211666124 -0.0098460663 0.0900039378 
-0.00487286804 -0.0180863022 0.104098453 
-0.00136730945 -0.00909671451 0.106050102 
0 0 0.0887152438 
0 0 0.0895270771 
0 0 0.100107878 
0 0 0.104098453 
-0.017299785 -0.0112446961 0.0887152438 
-0.00939066414 -0.0180863022 0.0895270771 
-0.017299785 -0.019434899 0.100107878 
-0.0161759544 -0.0180863022 0.104098453 
0 0 0.0882282807 
0 0 0.0887152438 
0 0 0.109807351 
0 0 0.100107878 
-0.00759628906 -0.00254297876 0.0882282807 
-0.017299785 -0.0127793067 0.0887152438 
-0.00608950201 -0.0010361917 0.109807351 
-0.017299785 -0.00239867864 0.100107878 
0 0 0.0286090565 
0 0 0.0555773743 
0.00394372616 -0.000902220475 0.0286090565 
-0.000771438106 -0.000902220475 0.0555773743 
0 0 0.03306163 
0 0 0.0540066707 
0.00647057507 -0.010332549 0.03306163 
0.00238712304 -0.0126901311 0.0540066707 
0 0 0 
0 0 0.0286090565 
-2.66372452e-05 0.00614025722 0 
0.00205669995 0.00614025722 0.0286090565 
0 0 0 
0 0 0.03306163 
-0.00763976102 0.0133660271 -7.62891888e-18 
-0.000919125223 0.0172461879 0.03306163 
0 0 0.0286090565 
0 0 0 
0.00546530344 0.00614025722 0.0286090565 
2.66372452e-05 0.00614025722 0 
0 0 0.0236671968 
0 0 0 
0.00239458441 -0.0053198222 0.0236671968 
-0.00169209406 -0.00296037729 -2.25432214e-18 
0 0 0.0555773743 
0 0 0.0286090565 
-0.00561245521 -0.000902220475 0.0555773743 
0.00357827722 -0.000902220475 0.0286090565 
0 0 0.0604126603 
0 0 0.0236671968 
0.000544168123 0.0220746106 0.0604126603 
0.00850357589 0.0174792444 0.0236671968 
0 0 0.0900039378 
0 0 0.0555773743 
-0.00206761457 0.00145987638 0.0900039378 
-0.00497953327 0.00145987638 0.0555773743 
0 0 0.0895270771 
0 0 0.0604126603 
-0.00474929897 -0.00412976529 0.0895270771 
-0.00624576859 -0.00326577815 0.0604126603 
0.00546530344 0.00614025722 0.0265118693 
2.66372452e-05 0.00614025722 0 
0.00668778804 0.00808614007 0.0265118693 
3.50787415e-05 0.00808614007 0 
0.00239458441 -0.0053198222 0.0254686842 
-0.00169209406 -0.00296037729 0 
0.00305350204 -0.00547719997 0.0254686842 
-0.00159623694 -0.00279267192 0 
-0.00561245521 -0.000902220475 0.0546340592 
0.00357827722 -0.000902220475 0.0265118693 
0.00127533802 0.000503303187 0.0546340592 
0.00465597303 0.000503303187 0.0265118693 
0.000544168123 0.0220746106 0.0475874549 
0.00850357589 0.0174792444 0.0254686842 
0.00353993407 0.00895489071 0.0475874549 
0.00646764987 0.0072645732 0.0254686842 
-0.00206761457 0.00145987638 0.0821331832 
-0.00497953327 0.00145987638 0.0546340592 
0.00190677909 -0.0109351263 0.0821331832 
-0.00178957993 -0.0109351263 0.0546340592 
-0.00474929897 -0.00412976529 0.0767568492 
-0.00624576859 -0.00326577815 0.0475874549 
-0.00415944907 -0.0112151245 0.0767568492 
-0.002172056 -0.0123625464 0.0475874549 
0.00668778804 0.00808614007 0.0214958579 
3.50787415e-05 0.00808614007 0 
0 0 0.0214958579 
0 0 0 
0.00305350204 -0.00547719997 0.026980423 
-0.00159623694 -0.00279267192 1.5939716e-18 
0 0 0.026980423 
0 0 0 
0.00127533802 0.000503303187 0.0486636344 
0.00465597303 0.000503303187 0.0214958579 
0 0 0.0486636344 
0 0 0.0214958579 
0.00353993407 0.00895489071 0.0492686926 
0.00646764987 0.0072645732 0.026980423 
0 0 0.0492686926 
0 0 0.026980423 
0.00190677909 -0.0109351263 0.0878278228 
-0.00178957993 -0.0109351263 0.0486636344 
0 0 0.0878278228 
0 0 0.0486636344 
-0.00415944907 -0.0112151245 0.0872548287 
-0.002172056 -0.0123625464 0.0492686926 
0 0 0.0872548287 
0 0 0.0492686926 
0 0 0.0236671968 
0 0 0 
-0.00273247589 -0.00235971256 0.0236671968 
-0.0017177149 -0.00294558509 -2.28845596e-18 
0 0 0.0239666387 
0 0 0 
-0.00213318609 -0.00176042276 0.0239666387 
-0.00235625863 -0.00137404979 1.30856504e-18 
0 0 0.0604126603 
0 0 0.0236671968 
0.0152105386 0.0136069777 0.0604126603 
0.0139575992 0.0143303626 0.0236671968 
0 0 0.0591552132 
0 0 0.0239666387 
0.0125627662 0.0109592053 0.0591552132 
0.0118393813 0.0122121446 0.0239666387 
0 0 0.0895270771 
0 0 0.0604126603 
-0.00213283747 -0.00564038004 0.0895270771 
-0.00333991347 -0.00494347438 0.0604126603 
0 0 0.0887152438 
0 0 0.0591552132 
-0.00399902396 -0.00348837103 0.0887152438 
-0.00322516798 -0.00482872889 0.0591552132 
-0.00273247589 -0.00235971256 0.0254686842 
-0.0017177149 -0.00294558509 0 
-0.00156683553 -0.00280964683 0.0254686842 
-0.00162040636 -0.0027787177 0 
-0.00213318609 -0.00176042276 0.0239486705 
-0.00235625863 -0.00137404979 -7.86528032e-19 
-0.00356489723 -0.00480770852 0.0239486705 
-0.00474356112 -0.00276620277 2.8936131e-18 
0.0152105386 0.0136069777 0.0475874549 
0.0139575992 0.0143303626 0.0254686842 
0.00843466553 0.00612891618 0.0475874549 
0.00776078981 0.00651797851 0.0254686842 
0.0125627662 0.0109592053 0.0469898583 
0.0118393813 0.0122121446 0.0239486705 
0.00701059857 0.00470484922 0.0469898583 
0.00662153624 0.00537872494 0.0239486705 
-0.00213283747 -0.00564038004 0.0767568492 
-0.00333991347 -0.00494347438 0.0475874549 
-0.00670747254 -0.00974402248 0.0767568492 
-0.00717078155 -0.0094765309 0.0475874549 
-0.00399902396 -0.00348837103 0.0782602229 
-0.00322516798 -0.00482872889 0.0469898583 
-0.00648483445 -0.00275636864 0.0782602229 
-0.00427615841 -0.00658190775 0.0469898583 
-0.00156683553 -0.00280964683 0.026980423 
-0.00162040636 -0.0027787177 1.5431807e-18 
0 0 0.026980423 
0 0 0 
-0.00356489723 -0.00480770852 0.028076014 
-0.00474356112 -0.00276620277 -1.84266121e-18 
0 0 0.028076014 
0 0 0 
0.00843466553 0.00612891618 0.0492686926 
0.00776078981 0.00651797851 0.026980423 
0 0 0.0492686926 
0 0 0.026980423 
0.00701059857 0.00470484922 0.0508730593 
0.00662153624 0.00537872494 0.028076014 
0 0 0.0508730593 
0 0 0.028076014 
-0.00670747254 -0.00974402248 0.0872548287 
-0.00717078155 -0.0094765309 0.0492686926 
0 0 0.0872548287 
0 0 0.0492686926 
-0.00648483445 -0.00275636864 0.0865339187 
-0.00427615841 -0.00658190775 0.0508730593 
0 0 0.0865339187 
0 0 0.0508730593 
0 0 0.0239666387 
0 0 0 
-0.00254938685 -0.00103954191 0.0239666387 
-0.00236809134 -0.00135355494 1.35163401e-18 
0 0 0.0236381264 
0 0 0 
-0.00361869413 -0.00132606193 0.0236381264 
-0.00361869413 -1.56983721e-05 0 
0 0 0.0591552132 
0 0 0.0239666387 
0.0178338089 0.00182949152 0.0591552132 
0.0165374952 0.00407477271 0.0239666387 
0 0 0.0566023645 
0 0 0.0236381264 
0.0113522404 9.276047e-05 0.0566023645 
0.0113522404 0.00268538787 0.0236381264 
0 0 0.0887152438 
0 0 0.0591552132 
-0.00326605969 -0.00475790238 0.0887152438 
-0.00373291027 -0.00394929346 0.0591552132 
0 0 0.0882282807 
0 0 0.0566023645 
-0.00333998539 -0.00252451435 0.0882282807 
-0.00333998539 -0.00384400955 0.0566023645 
-0.00254938685 -0.00103954191 0.0239486705 
-0.00236809134 -0.00135355494 -8.99970589e-19 
-0.00554347286 -0.001380715 0.0239486705 
-0.00476738244 -0.00272494305 2.72445424e-18 
-0.00361869413 -0.00132606193 0.0246420652 
-0.00361869413 -1.56983721e-05 0 
-0.00522951064 -0.00129658908 0.0246420652 
-0.00522951064 -2.26863065e-05 0 
0.0178338089 0.00182949152 0.0469898583 
0.0165374952 0.00407477271 0.0239486705 
0.00826378515 0.00253426639 0.0469898583 
0.00837145403 0.00234777842 0.0239486705 
0.0113522404 9.276047e-05 0.0506551277 
0.0113522404 0.00268538787 0.0246420652 
0.00880212955 0.00267851534 0.0506551277 
0.00880212955 0.00246317758 0.0246420652 
-0.00326605969 -0.00475790238 0.0782602229 
-0.00373291027 -0.00394929346 0.0469898583 
-0.00573299249 -0.00405859711 0.0782602229 
-0.00715421161 -0.00159697339 0.0469898583 
-0.00333998539 -0.00252451435 0.0812589967 
-0.00333998539 -0.00384400955 0.0506551277 
-0.0087240652 -0.000716539926 0.0812589967 
-0.0087240652 -0.00201761439 0.0506551277 
-0.00554347286 -0.001380715 0.028076014 
-0.00476738244 -0.00272494305 -1.81517671e-18 
0 0 0.028076014 
0 0 0 
-0.00522951064 -0.00129658908 0.0280622288 
-0.00522951064 -2.26863065e-05 0 
0 0 0.0280622288 
0 0 0 
0.00826378515 0.00253426639 0.0508730593 
0.00837145403 0.00234777842 0.028076014 
0 0 0.0508730593 
0 0 0.028076014 
0.00880212955 0.00267851534 0.0509492819 
0.00880212955 0.00246317758 0.0280622288 
0 0 0.0509492819 
0 0 0.0280622288 
-0.00573299249 -0.00405859711 0.0865339187 
-0.00715421161 -0.00159697339 0.0508730593 
0 0 0.0865339187 
0 0 0.0508730593 
-0.0087240652 -0.000716539926 0.0886072234 
-0.0087240652 -0.00201761439 0.0509492819 
0 0 0.0886072234 
0 0 0.0509492819 
-0.0087240652 0.00143107247 0.0886072234 
-0.0087240652 0.0010784357 0.0509492819 
0 0 0.0886072234 
0 0 0.0509492819 
-0.00274876585 0.003175881 0.0859890909 
-0.00459802682 -2.71329507e-05 0.0518147964 
0 0 0.0859890909 
0 0 0.0518147964 
0.00880212955 -0.00361769403 0.0509492819 
0.00880212955 0.000246238983 0.0280622288 
0 0 0.0509492819 
0 0 0.0280622288 
-0.000857702979 -0.0010293497 0.0518147964 
0.00107426353 0.00231691444 0.0246887188 
0 0 0.0518147964 
0 0 0.0246887188 
-0.00522951064 0.00400600564 0.0280622288 
-0.00522951064 2.26863065e-05 0 
0 0 0.0280622288 
0 0 0 
0.00258477682 0.00191217363 0.0246887188 
0.00111336875 -0.000636379915 -6.35476782e-19 
0 0 0.0246887188 
0 0 0 
-0.00333998539 -0.000892070286 0.0812589967 
-0.00333998539 -0.00616126413 0.0506551277 
-0.0087240652 0.00143107247 0.0812589967 
-0.0087240652 0.0010784357 0.0506551277 
0.00763538977 -0.00540842978 0.0816060364 
0.00578855114 -0.00860724813 0.0560585117 
-0.00274876585 0.003175881 0.0816060364 
-0.00459802682 -2.71329507e-05 0.0560585117 
0.0113522404 -0.0100980342 0.0506551277 
0.0113522404 -0.00168537214 0.0246420652 
0.00880212955 -0.00361769403 0.0506551277 
0.00880212955 0.000246238983 0.0246420652 
-0.0096794147 -0.00446261917 0.0560585117 
-0.00547308369 0.00282295985 0.0260848971 
-0.000857702979 -0.0010293497 0.0560585117 
0.00107426353 0.00231691444 0.0260848971 
-0.00361869413 0.00232607767 0.0246420652 
-0.00361869413 1.56983721e-05 0 
-0.00522951064 0.00400600564 0.0246420652 
-0.00522951064 2.26863065e-05 0 
0.000450660363 0.00123569742 0.0260848971 
-0.00019757101 0.000112927745 0 
0.00258477682 0.00191217363 0.0260848971 
0.00111336875 -0.000636379915 0 
0 0 0.0882282807 
0 0 0.0566023645 
-0.00333998539 -0.000892070286 0.0882282807 
-0.00333998539 -0.00616126413 0.0566023645 
0 0 0.0860008998 
0 0 0.0491524979 
0.00763538977 -0.00540842978 0.0860008998 
0.00578855114 -0.00860724813 0.0491524979 
0 0 0.0566023645 
0 0 0.0236381264 
0.0113522404 -0.0100980342 0.0566023645 
0.0113522404 -0.00168537214 0.0236381264 
0 0 0.0491524979 
0 0 0.0252161339 
-0.0096794147 -0.00446261917 0.0491524979 
-0.00547308369 0.00282295985 0.0252161339 
0 0 0.0236381264 
0 0 0 
-0.00361869413 0.00232607767 0.0236381264 
-0.00361869413 1.56983721e-05 0 
0 0 0.0252161339 
0 0 0 
0.000450660363 0.00123569742 0.0252161339 
-0.00019757101 0.000112927745 0 
-0.00361375471 0.00167767636 0.0859890909 
-0.00445898771 0.000213689857 0.0518147964 
0 0 0.0859890909 
0 0 0.0518147964 
0.0005102744 -0.00161186151 0.0862002739 
-0.00148275835 -0.0027625395 0.0549814745 
0 0 0.0862002739 
0 0 0.0549814745 
-0.00172088062 -0.00252441723 0.0518147964 
-0.0021943542 -0.00334449753 0.0246887188 
0 0 0.0518147964 
0 0 0.0246887188 
1.21529671e-05 -0.00425745082 0.0549814745 
-0.000807927331 -0.0047309244 0.0297912336 
0 0 0.0549814745 
0 0 0.0297912336 
0.00796543884 -0.00483676802 0.0816060364 
0.00629227581 -0.0077347714 0.0560585117 
-0.00361375471 0.00167767636 0.0816060364 
-0.00445898771 0.000213689857 0.0560585117 
0.00547982298 -0.00972573709 0.0813541485 
0.0072571191 -0.0086996147 0.0540656224 
0.0005102744 -0.00161186151 0.0813541485 
-0.00148275835 -0.0027625395 0.0540656224 
0 0 0.0860008998 
0 0 0.0491524979 
0.00796543884 -0.00483676802 0.0860008998 
0.00629227581 -0.0077347714 0.0491524979 
0 0 0.0857810701 
0 0 0.0481554223 
0.00547982298 -0.00972573709 0.0857810701 
0.0072571191 -0.0086996147 0.0481554223 
</DataArray>
<DataArray type="Float64" Name="b_field" NumberOfComponents="3" ComponentName0="0" ComponentName1="1" ComponentName2="2" format="ascii" >
0.21349786 -0.131249872 -7.04279004e-17 
0.192488476 -0.00883862062 -6.91638899e-17 
0.21349786 -0.0897260486 3.15956845e-17 
0.311651775 -0.12800192 4.73935267e-17 
0.21349786 -0.131249872 0 
0.192488476 -0.00883862062 0 
0.21349786 -0.0897260486 0 
0.311651775 -0.12800192 0 
0.120976013 -0.20752563 -5.8257399e-16 
0.21349786 -0.124543401 -4.43209264e-16 
0.201446414 -0.20752563 -1.79588885e-15 
0.21349786 -0.217568502 -1.14914852e-15 
0.120976013 -0.20752563 0 
0.21349786 -0.124543401 0 
0.201446414 -0.20752563 0 
0.21349786 -0.217568502 0 
0.00655369107 -0.194346183 -6.55866598e-16 
0.125195162 -0.20752563 -1.2843375e-15 
0.115324577 -0.303117069 -1.59163261e-15 
0.103706486 -0.20752563 -2.08410082e-15 
0.00655369107 -0.194346183 0 
0.125195162 -0.20752563 0 
0.115324577 -0.303117069 0 
0.103706486 -0.20752563 0 
0.21349786 -0.131249872 -7.2818572e-16 
0.192488476 -0.00883862062 -5.13440425e-16 
0.21349786 -0.0897260486 -1.14534356e-15 
0.311651775 -0.12800192 -1.70623884e-15 
0.21349786 -0.131249872 -7.04279004e-17 
0.192488476 -0.00883862062 -6.91638899e-17 
0.21349786 -0.0897260486 3.15956845e-17 
0.311651775 -0.12800192 4.73935267e-17 
0.120976013 -0.20752563 8.32403773e-16 
0.21349786 -0.124543401 7.45697187e-16 
0.201446414 -0.20752563 2.42711127e-15 
0.21349786 -0.217568502 1.56996347e-15 
0.120976013 -0.20752563 -5.8257399e-16 
0.21349786 -0.124543401 -4.43209264e-16 
0.201446414 -0.20752563 -1.79588885e-15 
0.21349786 -0.217568502 -1.14914852e-15 
0.00655369107 -0.194346183 8.67224726e-16 
0.125195162 -0.20752563 1.80735629e-15 
0.115324577 -0.303117069 2.11691086e-15 
0.103706486 -0.20752563 3.05633798e-15 
0.00655369107 -0.194346183 -6.55866598e-16 
0.125195162 -0.20752563 -1.2843375e-15 
0.115324577 -0.303117069 -1.59163261e-15 
0.103706486 -0.20752563 -2.08410082e-15 
0.21349786 -0.131249872 0 
0.192488476 -0.00883862062 0 
0.21349786 -0.0897260486 0 
0.311651775 -0.12800192 0 