<VTKFile type="UnstructuredGrid" version="2.2" byte_order="LittleEndian">
<UnstructuredGrid>
<Piece NumberOfPoints="384" NumberOfCells="48">
<Points>
<DataArray type="Float64" NumberOfComponents="3" format="ascii">
-0.25 0.359807621 0.166666667
-0.341506351 0.25 0.166666667
-0.125 0.375 0.166666667
-0.25 0.25 0.166666667
-0.25 0.359807621 0.5
-0.341506351 0.25 0.5
-0.125 0.375 0.5
-0.25 0.25 0.5
-0.25 0.433012702 0.166666667
-0.433012702 0.25 0.166666667
-0.25 0.359807621 0.166666667
-0.341506351 0.25 0.166666667
-0.25 0.433012702 0.5
-0.433012702 0.25 0.5
-0.25 0.359807621 0.5
-0.341506351 0.25 0.5
0 0.5 0.166666667
-0.25 0.433012702 0.166666667
-0.125 0.375 0.166666667
-0.25 0.359807621 0.166666667
0 0.5 0.5
-0.25 0.433012702 0.5
-0.125 0.375 0.5
-0.25 0.359807621 0.5
-0.1 0.25 0.166666667
-0.125 0.375 0.166666667
-0.125 0.125 0.166666667
-0.25 0.25 0.166666667
-0.1 0.25 0.5
-0.125 0.375 0.5
-0.125 0.125 0.5
-0.25 0.25 0.5
0 0.25 0.166666667
0 0.5 0.166666667
-0.1 0.25 0.166666667
-0.125 0.375 0.166666667
0 0.25 0.5
0 0.5 0.5
-0.1 0.25 0.5
-0.125 0.375 0.5
0 0 0.166666667
0 0.25 0.166666667
-0.125 0.125 0.166666667
-0.1 0.25 0.166666667
0 0 0.5
0 0.25 0.5
-0.125 0.125 0.5
-0.1 0.25 0.5
-0.25 0.359807621 -0.166666667
-0.341506351 0.25 -0.166666667
-0.125 0.375 -0.166666667
-0.25 0.25 -0.166666667
-0.25 0.359807621 0.166666667
-0.341506351 0.25 0.166666667
-0.125 0.375 0.166666667
-0.25 0.25 0.166666667
-0.25 0.433012702 -0.166666667
-0.433012702 0.25 -0.166666667
-0.25 0.359807621 -0.166666667
-0.341506351 0.25 -0.166666667
-0.25 0.433012702 0.166666667
-0.433012702 0.25 0.166666667
-0.25 0.359807621 0.166666667
-0.341506351 0.25 0.166666667
0 0.5 -0.166666667
-0.25 0.433012702 -0.166666667
-0.125 0.375 -0.166666667
-0.25 0.359807621 -0.166666667
0 0.5 0.166666667
-0.25 0.433012702 0.166666667
-0.125 0.375 0.166666667
-0.25 0.359807621 0.166666667
-0.1 0.25 -0.166666667
-0.125 0.375 -0.166666667
-0.125 0.125 -0.166666667
-0.25 0.25 -0.166666667
-0.1 0.25 0.166666667
-0.125 0.375 0.166666667
-0.125 0.125 0.166666667
-0.25 0.25 0.166666667
0 0.25 -0.166666667
0 0.5 -0.166666667
-0.1 0.25 -0.166666667
-0.125 0.375 -0.166666667
0 0.25 0.166666667
0 0.5 0.166666667
-0.1 0.25 0.166666667
-0.125 0.375 0.166666667
0 0 -0.166666667
0 0.25 -0.166666667
-0.125 0.125 -0.166666667
-0.1 0.25 -0.166666667
0 0 0.166666667
0 0.25 0.166666667
-0.125 0.125 0.166666667
-0.1 0.25 0.166666667
-0.25 0.359807621 -0.5
-0.341506351 0.25 -0.5
-0.125 0.375 -0.5
-0.25 0.25 -0.5
-0.25 0.359807621 -0.166666667
-0.341506351 0.25 -0.166666667
-0.125 0.375 -0.166666667
-0.25 0.25 -0.166666667
-0.25 0.433012702 -0.5
-0.433012702 0.25 -0.5
-0.25 0.359807621 -0.5
-0.341506351 0.25 -0.5
-0.25 0.433012702 -0.166666667
-0.433012702 0.25 -0.166666667
-0.25 0.359807621 -0.166666667
-0.341506351 0.25 -0.166666667
0 0.5 -0.5
-0.25 0.433012702 -0.5
-0.125 0.375 -0.5
-0.25 0.359807621 -0.5
0 0.5 -0.166666667
-0.25 0.433012702 -0.166666667
-0.125 0.375 -0.166666667
-0.25 0.359807621 -0.166666667
-0.1 0.25 -0.5
-0.125 0.375 -0.5
-0.125 0.125 -0.5
-0.25 0.25 -0.5
-0.1 0.25 -0.166666667
-0.125 0.375 -0.166666667
-0.125 0.125 -0.166666667
-0.25 0.25 -0.166666667
0 0.25 -0.5
0 0.5 -0.5
-0.1 0.25 -0.5
-0.125 0.375 -0.5
0 0.25 -0.166666667
0 0.5 -0.166666667
-0.1 0.25 -0.166666667
-0.125 0.375 -0.166666667
0 0 -0.5
0 0.25 -0.5
-0.125 0.125 -0.5
-0.1 0.25 -0.5
0 0 -0.166666667
0 0.25 -0.166666667
-0.125 0.125 -0.166666667
-0.1 0.25 -0.166666667
0.1 0.1 0.166666667
0.208333333 0.125 0.166666667
0.125 0.25 0.166666667
0.25 0.25 0.166666667
0.1 0.1 0.5
0.208333333 0.125 0.5
0.125 0.25 0.5
0.25 0.25 0.5
0 0.25 0.166666667
0 0 0.166666667
0.125 0.25 0.166666667
0.1 0.1 0.166666667
0 0.25 0.5
0 0 0.5
0.125 0.25 0.5
0.1 0.1 0.5
0.1 0.4 0.166666667
0.125 0.25 0.166666667
0.25 0.341506351 0.166666667
0.25 0.25 0.166666667
0.1 0.4 0.5
0.125 0.25 0.5
0.25 0.341506351 0.5
0.25 0.25 0.5
0 0.5 0.166666667
0 0.25 0.166666667
0.1 0.4 0.166666667
0.125 0.25 0.166666667
0 0.5 0.5
0 0.25 0.5
0.1 0.4 0.5
0.125 0.25 0.5
0.25 0.433012702 0.166666667
0 0.5 0.166666667
0.25 0.341506351 0.166666667
0.1 0.4 0.166666667
0.25 0.433012702 0.5
0 0.5 0.5
0.25 0.341506351 0.5
0.1 0.4 0.5
0.359807621 0.25 0.166666667
0.25 0.341506351 0.166666667
0.375 0.125 0.166666667
0.25 0.25 0.166666667
0.359807621 0.25 0.5
0.25 0.341506351 0.5
0.375 0.125 0.5
0.25 0.25 0.5
0.433012702 0.25 0.166666667
0.25 0.433012702 0.166666667
0.359807621 0.25 0.166666667
0.25 0.341506351 0.166666667
0.433012702 0.25 0.5
0.25 0.433012702 0.5
0.359807621 0.25 0.5
0.25 0.341506351 0.5
0.5 0 0.166666667
0.433012702 0.25 0.166666667
0.375 0.125 0.166666667
0.359807621 0.25 0.166666667
0.5 0 0.5
0.433012702 0.25 0.5
0.375 0.125 0.5
0.359807621 0.25 0.5
0.1 0.1 -0.166666667
0.208333333 0.125 -0.166666667
0.125 0.25 -0.166666667
0.25 0.25 -0.166666667
0.1 0.1 0.166666667
0.208333333 0.125 0.166666667
0.125 0.25 0.166666667
0.25 0.25 0.166666667
0 0.25 -0.166666667
0 0 -0.166666667
0.125 0.25 -0.166666667
0.1 0.1 -0.166666667
0 0.25 0.166666667
0 0 0.166666667
0.125 0.25 0.166666667
0.1 0.1 0.166666667
0.1 0.4 -0.166666667
0.125 0.25 -0.166666667
0.25 0.341506351 -0.166666667
0.25 0.25 -0.166666667
0.1 0.4 0.166666667
0.125 0.25 0.166666667
0.25 0.341506351 0.166666667
0.25 0.25 0.166666667
0 0.5 -0.166666667
0 0.25 -0.166666667
0.1 0.4 -0.166666667
0.125 0.25 -0.166666667
0 0.5 0.166666667
0 0.25 0.166666667
0.1 0.4 0.166666667
0.125 0.25 0.166666667
0.25 0.433012702 -0.166666667
0 0.5 -0.166666667
0.25 0.341506351 -0.166666667
0.1 0.4 -0.166666667
0.25 0.433012702 0.166666667
0 0.5 0.166666667
0.25 0.341506351 0.166666667
0.1 0.4 0.166666667
0.359807621 0.25 -0.166666667
0.25 0.341506351 -0.166666667
0.375 0.125 -0.166666667
0.25 0.25 -0.166666667
0.359807621 0.25 0.166666667
0.25 0.341506351 0.166666667
0.375 0.125 0.166666667
0.25 0.25 0.166666667
0.433012702 0.25 -0.166666667
0.25 0.433012702 -0.166666667
0.359807621 0.25 -0.166666667
0.25 0.341506351 -0.166666667
0.433012702 0.25 0.166666667
0.25 0.433012702 0.166666667
0.359807621 0.25 0.166666667
0.25 0.341506351 0.166666667
0.5 0 -0.166666667
0.433012702 0.25 -0.166666667
0.375 0.125 -0.166666667
0.359807621 0.25 -0.166666667
0.5 0 0.166666667
0.433012702 0.25 0.166666667
0.375 0.125 0.166666667
0.359807621 0.25 0.166666667
0.1 0.1 -0.5
0.208333333 0.125 -0.5
0.125 0.25 -0.5
0.25 0.25 -0.5
0.1 0.1 -0.166666667
0.208333333 0.125 -0.166666667
0.125 0.25 -0.166666667
0.25 0.25 -0.166666667
0 0.25 -0.5
0 0 -0.5
0.125 0.25 -0.5
0.1 0.1 -0.5
0 0.25 -0.166666667
0 0 -0.166666667
0.125 0.25 -0.166666667
0.1 0.1 -0.166666667
0.1 0.4 -0.5
0.125 0.25 -0.5
0.25 0.341506351 -0.5
0.25 0.25 -0.5
0.1 0.4 -0.166666667
0.125 0.25 -0.166666667
0.25 0.341506351 -0.166666667
0.25 0.25 -0.166666667
0 0.5 -0.5
0 0.25 -0.5
0.1 0.4 -0.5
0.125 0.25 -0.5
0 0.5 -0.166666667
0 0.25 -0.166666667
0.1 0.4 -0.166666667
0.125 0.25 -0.166666667
0.25 0.433012702 -0.5
0 0.5 -0.5
0.25 0.341506351 -0.5
0.1 0.4 -0.5
0.25 0.433012702 -0.166666667
0 0.5 -0.166666667
0.25 0.341506351 -0.166666667
0.1 0.4 -0.166666667
0.359807621 0.25 -0.5
0.25 0.341506351 -0.5
0.375 0.125 -0.5
0.25 0.25 -0.5
0.359807621 0.25 -0.166666667
0.25 0.341506351 -0.166666667
0.375 0.125 -0.166666667
0.25 0.25 -0.166666667
0.433012702 0.25 -0.5
0.25 0.433012702 -0.5
0.359807621 0.25 -0.5
0.25 0.341506351 -0.5
0.433012702 0.25 -0.166666667
0.25 0.433012702 -0.166666667
0.359807621 0.25 -0.166666667
0.25 0.341506351 -0.166666667
0.5 0 -0.5
0.433012702 0.25 -0.5
0.375 0.125 -0.5
0.359807621 0.25 -0.5
0.5 0 -0.166666667
0.433012702 0.25 -0.166666667
0.375 0.125 -0.166666667
0.359807621 0.25 -0.166666667
0.666666667 0 0.166666667
0.5 0 0.166666667
0.666666667 0 0.5
0.5 0 0.5
0.577350269 0.333333333 0.166666667
0.433012702 0.25 0.166666667
0.577350269 0.333333333 0.5
0.433012702 0.25 0.5
0.666666667 0 -0.166666667
0.5 0 -0.166666667
0.666666667 0 0.166666667
0.5 0 0.166666667
0.577350269 0.333333333 -0.166666667
0.433012702 0.25 -0.166666667
0.577350269 0.333333333 0.166666667
0.433012702 0.25 0.166666667
0.666666667 0 -0.5
0.5 0 -0.5
0.666666667 0 -0.166666667
0.5 0 -0.166666667
0.577350269 0.333333333 -0.5
0.433012702 0.25 -0.5
0.577350269 0.333333333 -0.166666667
0.433012702 0.25 -0.166666667
0.577350269 0.333333333 0.166666667
0.433012702 0.25 0.166666667
0.577350269 0.333333333 0.5
0.433012702 0.25 0.5
0.333333333 0.577350269 0.166666667
0.25 0.433012702 0.166666667
0.333333333 0.577350269 0.5
0.25 0.433012702 0.5
0.577350269 0.333333333 -0.166666667
0.433012702 0.25 -0.166666667
0.577350269 0.333333333 0.166666667
0.433012702 0.25 0.166666667
0.333333333 0.577350269 -0.166666667
0.25 0.433012702 -0.166666667
0.333333333 0.577350269 0.166666667
0.25 0.433012702 0.166666667
0.577350269 0.333333333 -0.5
0.433012702 0.25 -0.5
0.577350269 0.333333333 -0.166666667
0.433012702 0.25 -0.166666667
0.333333333 0.577350269 -0.5
0.25 0.433012702 -0.5
0.333333333 0.577350269 -0.166666667
0.25 0.433012702 -0.166666667
</DataArray>
</Points>
<Cells>
<DataArray type="Int32" Name="connectivity" format="ascii">
0 1 3 2 4 5 7 6 
8 9 11 10 12 13 15 14 
16 17 19 18 20 21 23 22 
24 25 27 26 28 29 31 30 
32 33 35 34 36 37 39 38 
40 41 43 42 44 45 47 46 
48 49 51 50 52 53 55 54 
56 57 59 58 60 61 63 62 
64 65 67 66 68 69 71 70 
72 73 75 74 76 77 79 78 
80 81 83 82 84 85 87 86 
88 89 91 90 92 93 95 94 
96 97 99 98 100 101 103 102 
104 105 107 106 108 109 111 110 
112 113 115 114 116 117 119 118 
120 121 123 122 124 125 127 126 
128 129 131 130 132 133 135 134 
136 137 139 138 140 141 143 142 
144 145 147 146 148 149 151 150 
152 153 155 154 156 157 159 158 
160 161 163 162 164 165 167 166 
168 169 171 170 172 173 175 174 
176 177 179 178 180 181 183 182 
184 185 187 186 188 189 191 190 
192 193 195 194 196 197 199 198 
200 201 203 202 204 205 207 206 
208 209 211 210 212 213 215 214 
216 217 219 218 220 221 223 222 
224 225 227 226 228 229 231 230 
232 233 235 234 236 237 239 238 
240 241 243 242 244 245 247 246 
248 249 251 250 252 253 255 254 
256 257 259 258 260 261 263 262 
264 265 267 266 268 269 271 270 
272 273 275 274 276 277 279 278 
280 281 283 282 284 285 287 286 
288 289 291 290 292 293 295 294 
296 297 299 298 300 301 303 302 
304 305 307 306 308 309 311 310 
312 313 315 314 316 317 319 318 
320 321 323 322 324 325 327 326 
328 329 331 330 332 333 335 334 
336 337 339 338 340 341 343 342 
344 345 347 346 348 349 351 350 
352 353 355 354 356 357 359 358 
360 361 363 362 364 365 367 366 
368 369 371 370 372 373 375 374 
376 377 379 378 380 381 383 382 
</DataArray>
<DataArray type="Int32" Name="offsets" format="ascii">
8
16
24
32
40
48
56
64
72
80
88
96
104
112
120
128
136
144
152
160
168
176
184
192
200
208
216
224
232
240
248
256
264
272
280
288
296
304
312
320
328
336
344
352
360
368
376
384
</DataArray>
<DataArray type="UInt8" Name="types" format="ascii">
12
12
12
12
12
12
12
12
12
12
12
12
12
12
12
12
12
12
12
12
12
12
12
12
12
12
12
12
12
12
12
12
12
12
12
12
12
12
12
12
12
12
12
12
12
12
12
12
</DataArray>
</Cells>
<CellData Scalars="attribute">
<DataArray type="Int32" Name="attribute" format="ascii">
1
1
1
1
1
1
1
1
1
1
1
1
1
1
1
1
1
1
1
1
1
1
1
1
1
1
1
1
1
1
1
1
1
1
1
1
1
1
1
1
1
1
2
2
2
2
2
2
</DataArray>
</CellData>
<PointData >
<DataArray type="Float64" Name="a_field" NumberOfComponents="3" ComponentName0="0" ComponentName1="1" ComponentName2="2" format="ascii" >
0.00125457314 -0.00157844593 0.0999852545 
0.00288778259 -0.0029394538 0.104136358 
0.00141998872 -0.0029394538 0.109263419 
0.00288778259 -0.00440724767 0.116212488 
0 0 0.0999852545 
0 0 0.104136358 
0 0 0.109263419 
0 0 0.116212488 
0.00340185982 -0.00657043226 0.0862002739 
0.00481027153 -0.00323478586 0.0859890909 
0.00724495674 -0.00657043226 0.0999852545 
0.00481027153 -0.00454152792 0.104136358 
0 0 0.0862002739 
0 0 0.0859890909 
0 0 0.0999852545 
0 0 0.104136358 
-8.67042566e-05 -0.0050565484 0.0884973198 
0.00363039773 -0.00657043226 0.0862002739 
0.00192135605 -0.00706460871 0.109263419 
0.00186129432 -0.00657043226 0.0999852545 
0 0 0.0884973198 
0 0 0.0862002739 
0 0 0.109263419 
0 0 0.0999852545 
0.00154563381 -0.000918543139 0.12862275 
-0.000243162647 -0.00127630243 0.109263419 
-0.000243162647 -0.000560783847 0.139396767 
-0.000600921939 -0.000918543139 0.116212488 
0 0 0.12862275 
0 0 0.109263419 
0 0 0.139396767 
0 0 0.116212488 
-0.0032614053 -0.00188089916 0.13377766 
-0.0032623535 -0.00188089916 0.0884973198 
-0.0032614053 -0.00187995096 0.12862275 
-0.00326298563 -0.00188026703 0.109263419 
0 0 0.13377766 
0 0 0.0884973198 
0 0 0.12862275 
0 0 0.109263419 
-0.0023918487 -0.000826691916 0.15100906 
-0.0032614053 -0.000826691916 0.13377766 
-0.0018121443 -0.000246987517 0.139396767 
-0.0032614053 4.28646831e-05 0.12862275 
0 0 0.15100906 
0 0 0.13377766 
0 0 0.139396767 
0 0 0.12862275 
0.00205777928 -0.00238695126 0.0979006742 
0.00113121024 -0.00161481039 0.102181505 
0.00196393403 -0.00161481039 0.107313009 
0.00113121024 -0.000782086603 0.115532598 
0.00125457314 -0.00157844593 0.0979006742 
0.00288778259 -0.0029394538 0.102181505 
0.00141998872 -0.0029394538 0.107313009 
0.00288778259 -0.00440724767 0.115532598 
0.000138562405 -0.000566395553 0.0813541485 
0.000775250273 -0.000643816975 0.0816060364 
-0.000126887559 -0.000566395553 0.0979006742 
0.000775250273 -0.00131817708 0.102181505 
0.00340185982 -0.00657043226 0.0813541485 
0.00481027153 -0.00323478586 0.0816060364 
0.00724495674 -0.00657043226 0.0979006742 
0.00481027153 -0.00454152792 0.102181505 
0.00121645005 -0.000717947487 0.0825025325 
0.00172127952 -0.000566395553 0.0813541485 
0.00194326678 -0.00144476422 0.107313009 
0.00183651071 -0.000566395553 0.0979006742 
-8.67042566e-05 -0.0050565484 0.0825025325 
0.00363039773 -0.00657043226 0.0813541485 
0.00192135605 -0.00706460871 0.107313009 
0.00186129432 -0.00657043226 0.0979006742 
0.000519865653 -0.00067129753 0.127302366 
0.000936995251 -0.00058787161 0.107313009 
0.000936995251 -0.00075472345 0.138320699 
0.00102042117 -0.00067129753 0.115532598 
0.00154563381 -0.000918543139 0.127302366 
-0.000243162647 -0.00127630243 0.107313009 
-0.000243162647 -0.000560783847 0.138320699 
-0.000600921939 -0.000918543139 0.115532598 
-0.00283225192 0.000994516716 0.131350109 
-0.000496014156 0.000994516716 0.0825025325 
-0.00283225192 -0.00134172104 0.127302366 
0.00106147768 -0.000562975124 0.107313009 
-0.0032614053 -0.00188089916 0.131350109 
-0.0032623535 -0.00188089916 0.0825025325 
-0.0032614053 -0.00187995096 0.127302366 
-0.00326298563 -0.00188026703 0.107313009 
-0.00440507782 0.00157195189 0.151000511 
-0.00283225192 0.00157195189 0.131350109 
-0.00545362843 0.000523401287 0.138320699 
-0.00283225192 -8.74015983e-07 0.127302366 
-0.0023918487 -0.000826691916 0.151000511 
-0.0032614053 -0.000826691916 0.131350109 
-0.0018121443 -0.000246987517 0.138320699 
-0.0032614053 4.28646831e-05 0.127302366 
0 0 0.101133407 
0 0 0.105681499 
0 0 0.111472972 
0 0 0.118860919 
0.00205777928 -0.00238695126 0.101133407 
0.00113121024 -0.00161481039 0.105681499 
0.00196393403 -0.00161481039 0.111472972 
0.00113121024 -0.000782086603 0.118860919 
0 0 0.0857810701 
0 0 0.0860008998 
0 0 0.101133407 
0 0 0.105681499 
0.000138562405 -0.000566395553 0.0857810701 
0.000775250273 -0.000643816975 0.0860008998 
-0.000126887559 -0.000566395553 0.101133407 
0.000775250273 -0.00131817708 0.105681499 
0 0 0.0889650916 
0 0 0.0857810701 
0 0 0.111472972 
0 0 0.101133407 
0.00121645005 -0.000717947487 0.0889650916 
0.00172127952 -0.000566395553 0.0857810701 
0.00194326678 -0.00144476422 0.111472972 
0.00183651071 -0.000566395553 0.101133407 
0 0 0.131583405 
0 0 0.111472972 
0 0 0.142798701 
0 0 0.118860919 
0.000519865653 -0.00067129753 0.131583405 
0.000936995251 -0.00058787161 0.111472972 
0.000936995251 -0.00075472345 0.142798701 
0.00102042117 -0.00067129753 0.118860919 
0 0 0.134910219 
0 0 0.0889650916 
0 0 0.131583405 
0 0 0.111472972 
-0.00283225192 0.000994516716 0.134910219 
-0.000496014156 0.000994516716 0.0889650916 
-0.00283225192 -0.00134172104 0.131583405 
0.00106147768 -0.000562975124 0.111472972 
0 0 0.151582674 
0 0 0.134910219 
0 0 0.142798701 
0 0 0.131583405 
-0.00440507782 0.00157195189 0.151582674 
-0.00283225192 0.00157195189 0.134910219 
-0.00545362843 0.000523401287 0.142798701 
-0.00283225192 -8.74015983e-07 0.131583405 
0.00238355475 -7.42132713e-05 0.142200853 
0.00284515608 -0.00207448572 0.132327459 
0.000537149414 0.000233520951 0.128783603 
0.000537149414 -0.00130515016 0.116521294 
0 0 0.142200853 
0 0 0.132327459 
0 0 0.128783603 
0 0 0.116521294 
0.00146418745 -0.000826691916 0.13377766 
0.000105627659 -0.000826691916 0.15100906 
0.00146418745 7.90146119e-05 0.128783603 
-0.00125293213 0.000531867876 0.142200853 
0 0 0.13377766 
0 0 0.15100906 
0 0 0.128783603 
0 0 0.142200853 
-0.00259455671 -0.000511726258 0.104938246 
0.000537149414 1.02247625e-05 0.128783603 
-0.00426279172 -0.00478971637 0.10504536 
0.000537149414 -0.00478971637 0.116521294 
0 0 0.104938246 
0 0 0.128783603 
0 0 0.10504536 
0 0 0.116521294 
0.00453263284 -0.00188089916 0.0884973198 
0.00146418745 -0.00188089916 0.13377766 
0.00760107824 0.00118754623 0.104938246 
0.00146418745 0.000164731102 0.128783603 
0 0 0.0884973198 
0 0 0.13377766 
0 0 0.104938246 
0 0 0.128783603 
-0.00104253102 -0.00233749629 0.0861506368 
0.000228013067 -0.00618551894 0.0884973198 
-0.00330652972 -0.00233749629 0.10504536 
-0.00802569059 -0.0144392226 0.104938246 
0 0 0.0861506368 
0 0 0.0884973198 
0 0 0.10504536 
0 0 0.104938246 
0.00365325928 0.000728997077 0.0996877466 
-0.000945668594 -0.00478971637 0.10504536 
-0.000945668594 0.000170047839 0.109605118 
-0.00590543281 -0.00478971637 0.116521294 
0 0 0.0996877466 
0 0 0.10504536 
0 0 0.109605118 
0 0 0.116521294 
-0.00337692846 -0.00327173575 0.085237441 
-6.0625145e-05 -0.00233749629 0.0861506368 
-0.00337692846 -0.00770722821 0.0996877466 
0.00109784814 -0.00233749629 0.10504536 
0 0 0.085237441 
0 0 0.0861506368 
0 0 0.0996877466 
0 0 0.10504536 
-0.00208364496 0.000325656498 0.0870345448 
-0.00337692846 -0.00154467894 0.085237441 
-0.00241822694 -8.92547453e-06 0.109605118 
-0.00337692846 -0.000125445128 0.0996877466 
0 0 0.0870345448 
0 0 0.085237441 
0 0 0.109605118 
0 0 0.0996877466 
-0.000173417614 -0.00250267852 0.1414043 
4.89125133e-05 -0.00346610907 0.133313146 
-0.00106273813 -0.00235445843 0.129417003 
-0.00106273813 -0.00309555886 0.117956083 
0.00238355475 -7.42132713e-05 0.1414043 
0.00284515608 -0.00207448572 0.133313146 
0.000537149414 0.000233520951 0.129417003 
0.000537149414 -0.00130515016 0.117956083 
-0.00523416141 0.00157195189 0.131350109 
-0.000387401746 0.00157195189 0.151000511 
-0.00523416141 -0.00165922122 0.129417003 
0.00445935792 -0.00327480777 0.1414043 
0.00146418745 -0.000826691916 0.131350109 
0.000105627659 -0.000826691916 0.151000511 
0.00146418745 7.90146119e-05 0.129417003 
-0.00125293213 0.000531867876 0.1414043 
-0.00197038103 0.00249701765 0.104228839 
-0.00106273813 0.00264829147 0.129417003 
-0.0024538752 0.00125715439 0.103505299 
-0.00106273813 0.00125715439 0.117956083 
-0.00259455671 -0.000511726258 0.104228839 
0.000537149414 1.02247625e-05 0.129417003 
-0.00426279172 -0.00478971637 0.103505299 
0.000537149414 -0.00478971637 0.117956083 
-0.0037963551 0.000994516716 0.0825025325 
-0.00523416141 0.000994516716 0.131350109 
-0.00235854879 0.00243232303 0.104228839 
-0.00523416141 0.00195305426 0.129417003 
0.00453263284 -0.00188089916 0.0825025325 
0.00146418745 -0.00188089916 0.131350109 
0.00760107824 0.00118754623 0.104228839 
0.00146418745 0.000164731102 0.129417003 
0.013177282 0.0177541202 0.0784533573 
0.00266241767 0.00745328949 0.0825025325 
0.00397924299 0.0177541202 0.103505299 
-0.00176360713 0.00302726468 0.104228839 
-0.00104253102 -0.00233749629 0.0784533573 
0.000228013067 -0.00618551894 0.0825025325 
-0.00330652972 -0.00233749629 0.103505299 
-0.00802569059 -0.0144392226 0.104228839 
0.00569874932 -0.00187187196 0.0977632102 
0.00830627129 0.00125715439 0.103505299 
0.00830627129 -0.00155495627 0.106505159 
0.0111183819 0.00125715439 0.117956083 
0.00365325928 0.000728997077 0.0977632102 
-0.000945668594 -0.00478971637 0.103505299 
-0.000945668594 0.000170047839 0.106505159 
-0.00590543281 -0.00478971637 0.117956083 
0.0044838956 0.00477444465 0.0808449229 
0.00819363132 0.0177541202 0.0784533573 
0.0044838956 -0.00332969643 0.0977632102 
0.0220537428 0.0177541202 0.103505299 
-0.00337692846 -0.00327173575 0.0808449229 
-6.0625145e-05 -0.00233749629 0.0784533573 
-0.00337692846 -0.00770722821 0.0977632102 
0.00109784814 -0.00233749629 0.103505299 
0.00310010244 -0.00263766184 0.0799759484 
0.0044838956 -0.000490683137 0.0808449229 
0.0036123083 -0.00212545598 0.106505159 
0.0044838956 -0.00201952411 0.0977632102 
-0.00208364496 0.000325656498 0.0799759484 
-0.00337692846 -0.00154467894 0.0808449229 
-0.00241822694 -8.92547453e-06 0.106505159 
-0.00337692846 -0.000125445128 0.0977632102 
0 0 0.142913513 
0 0 0.133565146 
0 0 0.128502421 
0 0 0.116043016 
-0.000173417614 -0.00250267852 0.142913513 
4.89125133e-05 -0.00346610907 0.133565146 
-0.00106273813 -0.00235445843 0.128502421 
-0.00106273813 -0.00309555886 0.116043016 
0 0 0.134910219 
0 0 0.151582674 
0 0 0.128502421 
0 0 0.142913513 
-0.00523416141 0.00157195189 0.134910219 
-0.000387401746 0.00157195189 0.151582674 
-0.00523416141 -0.00165922122 0.128502421 
0.00445935792 -0.00327480777 0.142913513 
0 0 0.105892816 
0 0 0.128502421 
0 0 0.103597327 
0 0 0.116043016 
-0.00197038103 0.00249701765 0.105892816 
-0.00106273813 0.00264829147 0.128502421 
-0.0024538752 0.00125715439 0.103597327 
-0.00106273813 0.00125715439 0.116043016 
0 0 0.0889650916 
0 0 0.134910219 
0 0 0.105892816 
0 0 0.128502421 
-0.0037963551 0.000994516716 0.0889650916 
-0.00523416141 0.000994516716 0.134910219 
-0.00235854879 0.00243232303 0.105892816 
-0.00523416141 0.00195305426 0.128502421 
0 0 0.0889347609 
0 0 0.0889650916 
0 0 0.103597327 
0 0 0.105892816 
0.013177282 0.0177541202 0.0889347609 
0.00266241767 0.00745328949 0.0889650916 
0.00397924299 0.0177541202 0.103597327 
-0.00176360713 0.00302726468 0.105892816 
0 0 0.10163422 
0 0 0.103597327 
0 0 0.112406408 
0 0 0.116043016 
0.00569874932 -0.00187187196 0.10163422 
0.00830627129 0.00125715439 0.103597327 
0.00830627129 -0.00155495627 0.112406408 
0.0111183819 0.00125715439 0.116043016 
0 0 0.0874270214 
0 0 0.0889347609 
0 0 0.10163422 
0 0 0.103597327 
0.0044838956 0.00477444465 0.0874270214 
0.00819363132 0.0177541202 0.0889347609 
0.0044838956 -0.00332969643 0.10163422 
0.0220537428 0.0177541202 0.103597327 
0 0 0.0910840077 
0 0 0.0874270214 
0 0 0.112406408 
0 0 0.10163422 
0.00310010244 -0.00263766184 0.0910840077 
0.0044838956 -0.000490683137 0.0874270214 
0.0036123083 -0.00212545598 0.112406408 
0.0044838956 -0.00201952411 0.10163422 
0.00162557994 0.000861412335 0.0529258459 
0.00162557994 0.000341747604 0.0870345448 
0 0 0.0529258459 
0 0 0.0870345448 
0.00172687541 0.000888554374 0.052103792 
0.00151677162 0.00125246481 0.085237441 
0 0 0.052103792 
0 0 0.085237441 
-0.00987908709 -0.00261342079 0.0524323729 
-0.00987908709 -0.00269396728 0.0799759484 
0.00162557994 0.000861412335 0.0524323729 
0.00162557994 0.000341747604 0.0799759484 
-0.00557134926 -0.00145916591 0.0524283254 
-0.00349684218 -0.00505231758 0.0808449229 
0.00172687541 0.000888554374 0.0524283254 
0.00151677162 0.00125246481 0.0808449229 
0 0 0.0528485552 
0 0 0.0910840077 
-0.00987908709 -0.00261342079 0.0528485552 
-0.00987908709 -0.00269396728 0.0910840077 
0 0 0.0524860135 
0 0 0.0874270214 
-0.00557134926 -0.00145916591 0.0524860135 
-0.00349684218 -0.00505231758 0.0874270214 
0.00145726828 0.00135552762 0.052103792 
0.00223828361 2.76937369e-06 0.085237441 
0 0 0.052103792 
0 0 0.085237441 
0.00269816227 0.00259642161 0.0522618303 
0.00278675611 0.00254527193 0.0861506368 
0 0 0.0522618303 
0 0 0.0861506368 
-0.00453246489 -0.00325856642 0.0524283254 
-0.0057311216 -0.0011824321 0.0808449229 
0.00145726828 0.00135552762 0.0524283254 
0.00223828361 2.76937369e-06 0.0808449229 
-0.00570159512 -0.00442769665 0.0515048467 
-0.00498345618 -0.00484231436 0.0784533573 
0.00269816227 0.00259642161 0.0515048467 
0.00278675611 0.00254527193 0.0784533573 
0 0 0.0524860135 
0 0 0.0874270214 
-0.00453246489 -0.00325856642 0.0524860135 
-0.0057311216 -0.0011824321 0.0874270214 
0 0 0.0535021308 
0 0 0.0889347609 
-0.00570159512 -0.00442769665 0.0535021308 
-0.00498345618 -0.00484231436 0.0889347609 
</DataArray>
<DataArray type="Float64" Name="b_field" NumberOfComponents="3" ComponentName0="0" ComponentName1="1" ComponentName2="2" format="ascii" >
-0.115624297 -0.0914663689 3.84523289e-17 
-0.156597112 -0.140633747 4.72068053e-17 
-0.156597112 -0.0964461651 3.45577799e-17 
-0.200784694 -0.140633747 4.14693359e-17 
-0.115624297 -0.0914663689 0 
-0.156597112 -0.140633747 0 
-0.156597112 -0.0964461651 0 
-0.200784694 -0.140633747 0 
-0.208017634 -0.120929644 -8.2636005e-16 
-0.124439307 -0.212747837 -6.6108804e-16 
-0.208017634 -0.202338373 -2.08788956e-15 
-0.216692187 -0.212747837 -1.39192637e-15 
-0.208017634 -0.120929644 0 
-0.124439307 -0.212747837 0 
-0.208017634 -0.202338373 0 
-0.216692187 -0.212747837 0 
-0.190642316 -0.00908376768 -8.26953387e-17 
-0.208017634 -0.128409071 -1.61936474e-16 
-0.294802002 -0.113243453 -2.00681965e-16 
-0.208017634 -0.102695765 -3.01022947e-16 
-0.190642316 -0.00908376768 0 
-0.208017634 -0.128409071 0 
-0.294802002 -0.113243453 0 
-0.208017634 -0.102695765 0 
-0.123289023 -0.176343171 3.72965547e-16 
-0.142156539 -0.082005592 1.24321849e-16 
-0.104421508 -0.082005592 1.24321849e-16 
-0.123289023 -0.0631380762 7.45931095e-17 
-0.123289023 -0.176343171 0 
-0.142156539 -0.082005592 0 
-0.104421508 -0.082005592 0 
-0.123289023 -0.0631380762 0 
-0.18676406 -0.0417648921 4.33680869e-18 
-0.18676406 -0.0052055114 3.46944695e-18 
-0.150204679 -0.0417648921 8.67361738e-18 
-0.162391139 0.0191674091 5.78241159e-18 
-0.18676406 -0.0417648921 0 
-0.18676406 -0.0052055114 0 
-0.150204679 -0.0417648921 0 
-0.162391139 0.0191674091 0 
-0.0714056751 -0.0167971995 1.04864034e-15 
-0.0714056751 -0.0417648921 1.31080043e-15 
-0.0880508035 -0.000152071168 1.7477339e-15 
-0.0963733677 -0.0417648921 2.62160085e-15 
-0.0714056751 -0.0167971995 0 
-0.0714056751 -0.0417648921 0 
-0.0880508035 -0.000152071168 0 
-0.0963733677 -0.0417648921 0 
-0.115624297 -0.0914663689 9.39335463e-16 
-0.156597112 -0.140633747 1.15319481e-15 
-0.156597112 -0.0964461651 8.44197195e-16 
-0.200784694 -0.140633747 1.01303663e-15 
-0.115624297 -0.0914663689 3.84523289e-17 
-0.156597112 -0.140633747 4.72068053e-17 
-0.156597112 -0.0964461651 3.45577799e-17 
-0.200784694 -0.140633747 4.14693359e-17 
-0.208017634 -0.120929644 5.62917747e-16 
-0.124439307 -0.212747837 3.47717273e-16 
-0.208017634 -0.202338373 1.35056487e-15 
-0.216692187 -0.212747837 9.00376577e-16 
-0.208017634 -0.120929644 -8.2636005e-16 
-0.124439307 -0.212747837 -6.6108804e-16 
-0.208017634 -0.202338373 -2.08788956e-15 
-0.216692187 -0.212747837 -1.39192637e-15 
-0.190642316 -0.00908376768 2.43339546e-16 
-0.208017634 -0.128409071 5.25249939e-16 
-0.294802002 -0.113243453 7.7409427e-16 
-0.208017634 -0.102695765 1.27854617e-15 
-0.190642316 -0.00908376768 -8.26953387e-17 
-0.208017634 -0.128409071 -1.61936474e-16 
-0.294802002 -0.113243453 -2.00681965e-16 
-0.208017634 -0.102695765 -3.01022947e-16 
-0.123289023 -0.176343171 -8.70317363e-16 
-0.142156539 -0.082005592 -1.72749546e-16 
-0.104421508 -0.082005592 -1.72749546e-16 
-0.123289023 -0.0631380762 -1.03649728e-16 
-0.123289023 -0.176343171 3.72965547e-16 
-0.142156539 -0.082005592 1.24321849e-16 
-0.104421508 -0.082005592 1.24321849e-16 
-0.123289023 -0.0631380762 7.45931095e-17 
-0.18676406 -0.0417648921 -1.58308642e-15 
-0.18676406 -0.0052055114 -1.1154272e-15 
-0.150204679 -0.0417648921 -2.78856799e-15 
-0.162391139 0.0191674091 -1.85904533e-15 
-0.18676406 -0.0417648921 4.33680869e-18 
-0.18676406 -0.0052055114 3.46944695e-18 
-0.150204679 -0.0417648921 8.67361738e-18 
-0.162391139 0.0191674091 5.78241159e-18 
-0.0714056751 -0.0167971995 -3.18425331e-16 
-0.0714056751 -0.0417648921 -4.16579001e-16 
-0.0880508035 -0.000152071168 -4.25007252e-16 
-0.0963733677 -0.0417648921 -6.74605553e-16 
-0.0714056751 -0.0167971995 1.04864034e-15 
-0.0714056751 -0.0417648921 1.31080043e-15 
-0.0880508035 -0.000152071168 1.7477339e-15 
-0.0963733677 -0.0417648921 2.62160085e-15 
-0.115624297 -0.0914663689 0 
-0.156597112 -0.140633747 0 
-0.156597112 -0.0964461651 0 
-0.200784694 -0.140633747 0 
-0.115624297 -0.0914663689 9.39335463e-16 
-0.156597112 -0.140633747 1.15319481e-15 
-0.156597112 -0.0964461651 8.44197195e-16 
-0.200784694 -0.140633747 1.01303663e-15 
-0.208017634 -0.120929644 0 
-0.124439307 -0.212747837 0 
-0.208017634 -0.202338373 0 
-0.216692187 -0.212747837 0 
-0.208017634 -0.120929644 5.62917747e-16 
-0.124439307 -0.212747837 3.47717273e-16 
-0.208017634 -0.202338373 1.35056487e-15 
-0.216692187 -0.212747837 9.00376577e-16 
-0.190642316 -0.00908376768 0 
-0.208017634 -0.128409071 0 
-0.294802002 -0.113243453 0 
-0.208017634 -0.102695765 0 
-0.190642316 -0.00908376768 2.43339546e-16 
-0.208017634 -0.128409071 5.25249939e-16 
-0.294802002 -0.113243453 7.7409427e-16 
-0.208017634 -0.102695765 1.27854617e-15 
-0.123289023 -0.176343171 0 
-0.142156539 -0.082005592 0 
-0.104421508 -0.082005592 0 
-0.123289023 -0.0631380762 0 
-0.123289023 -0.176343171 -8.70317363e-16 
-0.142156539 -0.082005592 -1.72749546e-16 
-0.104421508 -0.082005592 -1.72749546e-16 
-0.123289023 -0.0631380762 -1.03649728e-16 
-0.18676406 -0.0417648921 0 
-0.18676406 -0.0052055114 0 
-0.150204679 -0.0417648921 0 
-0.162391139 0.0191674091 0 
-0.18676406 -0.0417648921 -1.58308642e-15 
-0.18676406 -0.0052055114 -1.1154272e-15 
-0.150204679 -0.0417648921 -2.78856799e-15 
-0.162391139 0.0191674091 -1.85904533e-15 
-0.0714056751 -0.0167971995 0 
-0.0714056751 -0.0417648921 0 
-0.0880508035 -0.000152071168 0 
-0.0963733677 -0.0417648921 0 