<VTKFile type="UnstructuredGrid" version="2.2" byte_order="LittleEndian">
<UnstructuredGrid>
<Piece NumberOfPoints="408" NumberOfCells="51">
<Points>
<DataArray type="Float64" NumberOfComponents="3" format="ascii">
0.833333333 0 0.166666667
0.666666667 0 0.166666667
0.833333333 0 0.5
0.666666667 0 0.5
0.721687836 0.416666667 0.166666667
0.577350269 0.333333333 0.166666667
0.721687836 0.416666667 0.5
0.577350269 0.333333333 0.5
1 0 0.166666667
0.833333333 0 0.166666667
1 0 0.5
0.833333333 0 0.5
0.866025404 0.5 0.166666667
0.721687836 0.416666667 0.166666667
0.866025404 0.5 0.5
0.721687836 0.416666667 0.5
0.833333333 0 -0.166666667
0.666666667 0 -0.166666667
0.833333333 0 0.166666667
0.666666667 0 0.166666667
0.721687836 0.416666667 -0.166666667
0.577350269 0.333333333 -0.166666667
0.721687836 0.416666667 0.166666667
0.577350269 0.333333333 0.166666667
1 0 -0.166666667
0.833333333 0 -0.166666667
1 0 0.166666667
0.833333333 0 0.166666667
0.866025404 0.5 -0.166666667
0.721687836 0.416666667 -0.166666667
0.866025404 0.5 0.166666667
0.721687836 0.416666667 0.166666667
0.833333333 0 -0.5
0.666666667 0 -0.5
0.833333333 0 -0.166666667
0.666666667 0 -0.166666667
0.721687836 0.416666667 -0.5
0.577350269 0.333333333 -0.5
0.721687836 0.416666667 -0.166666667
0.577350269 0.333333333 -0.166666667
1 0 -0.5
0.833333333 0 -0.5
1 0 -0.166666667
0.833333333 0 -0.166666667
0.866025404 0.5 -0.5
0.721687836 0.416666667 -0.5
0.866025404 0.5 -0.166666667
0.721687836 0.416666667 -0.166666667
0.721687836 0.416666667 0.166666667
0.577350269 0.333333333 0.166666667
0.721687836 0.416666667 0.5
0.577350269 0.333333333 0.5
0.416666667 0.721687836 0.166666667
0.333333333 0.577350269 0.166666667
0.416666667 0.721687836 0.5
0.333333333 0.577350269 0.5
0.866025404 0.5 0.166666667
0.721687836 0.416666667 0.166666667
0.866025404 0.5 0.5
0.721687836 0.416666667 0.5
0.5 0.866025404 0.166666667
0.416666667 0.721687836 0.166666667
0.5 0.866025404 0.5
0.416666667 0.721687836 0.5
0.721687836 0.416666667 -0.166666667
0.577350269 0.333333333 -0.166666667
0.721687836 0.416666667 0.166666667
0.577350269 0.333333333 0.166666667
0.416666667 0.721687836 -0.166666667
0.333333333 0.577350269 -0.166666667
0.416666667 0.721687836 0.166666667
0.333333333 0.577350269 0.166666667
0.866025404 0.5 -0.166666667
0.721687836 0.416666667 -0.166666667
0.866025404 0.5 0.166666667
0.721687836 0.416666667 0.166666667
0.5 0.866025404 -0.166666667
0.416666667 0.721687836 -0.166666667
0.5 0.866025404 0.166666667
0.416666667 0.721687836 0.166666667
0.721687836 0.416666667 -0.5
0.577350269 0.333333333 -0.5
0.721687836 0.416666667 -0.166666667
0.577350269 0.333333333 -0.166666667
0.416666667 0.721687836 -0.5
0.333333333 0.577350269 -0.5
0.416666667 0.721687836 -0.166666667
0.333333333 0.577350269 -0.166666667
0.866025404 0.5 -0.5
0.721687836 0.416666667 -0.5
0.866025404 0.5 -0.166666667
0.721687836 0.416666667 -0.166666667
0.5 0.866025404 -0.5
0.416666667 0.721687836 -0.5
0.5 0.866025404 -0.166666667
0.416666667 0.721687836 -0.166666667
0.333333333 0.577350269 0.166666667
0.25 0.433012702 0.166666667
0.333333333 0.577350269 0.5
0.25 0.433012702 0.5
0 0.666666667 0.166666667
0 0.5 0.166666667
0 0.666666667 0.5
0 0.5 0.5
0.416666667 0.721687836 0.166666667
0.333333333 0.577350269 0.166666667
0.416666667 0.721687836 0.5
0.333333333 0.577350269 0.5
0 0.833333333 0.166666667
0 0.666666667 0.166666667
0 0.833333333 0.5
0 0.666666667 0.5
0.5 0.866025404 0.166666667
0.416666667 0.721687836 0.166666667
0.5 0.866025404 0.5
0.416666667 0.721687836 0.5
0 1 0.166666667
0 0.833333333 0.166666667
0 1 0.5
0 0.833333333 0.5
0.333333333 0.577350269 -0.166666667
0.25 0.433012702 -0.166666667
0.333333333 0.577350269 0.166666667
0.25 0.433012702 0.166666667
0 0.666666667 -0.166666667
0 0.5 -0.166666667
0 0.666666667 0.166666667
0 0.5 0.166666667
0.416666667 0.721687836 -0.166666667
0.333333333 0.577350269 -0.166666667
0.416666667 0.721687836 0.166666667
0.333333333 0.577350269 0.166666667
0 0.833333333 -0.166666667
0 0.666666667 -0.166666667
0 0.833333333 0.166666667
0 0.666666667 0.166666667
0.5 0.866025404 -0.166666667
0.416666667 0.721687836 -0.166666667
0.5 0.866025404 0.166666667
0.416666667 0.721687836 0.166666667
0 1 -0.166666667
0 0.833333333 -0.166666667
0 1 0.166666667
0 0.833333333 0.166666667
0.333333333 0.577350269 -0.5
0.25 0.433012702 -0.5
0.333333333 0.577350269 -0.166666667
0.25 0.433012702 -0.166666667
0 0.666666667 -0.5
0 0.5 -0.5
0 0.666666667 -0.166666667
0 0.5 -0.166666667
0.416666667 0.721687836 -0.5
0.333333333 0.577350269 -0.5
0.416666667 0.721687836 -0.166666667
0.333333333 0.577350269 -0.166666667
0 0.833333333 -0.5
0 0.666666667 -0.5
0 0.833333333 -0.166666667
0 0.666666667 -0.166666667
0.5 0.866025404 -0.5
0.416666667 0.721687836 -0.5
0.5 0.866025404 -0.166666667
0.416666667 0.721687836 -0.166666667
0 1 -0.5
0 0.833333333 -0.5
0 1 -0.166666667
0 0.833333333 -0.166666667
0.721687836 -0.416666667 0.166666667
0.577350269 -0.333333333 0.166666667
0.721687836 -0.416666667 0.5
0.577350269 -0.333333333 0.5
0.833333333 0 0.166666667
0.666666667 0 0.166666667
0.833333333 0 0.5
0.666666667 0 0.5
0.866025404 -0.5 0.166666667
0.721687836 -0.416666667 0.166666667
0.866025404 -0.5 0.5
0.721687836 -0.416666667 0.5
1 0 0.166666667
0.833333333 0 0.166666667
1 0 0.5
0.833333333 0 0.5
0.721687836 -0.416666667 -0.166666667
0.577350269 -0.333333333 -0.166666667
0.721687836 -0.416666667 0.166666667
0.577350269 -0.333333333 0.166666667
0.833333333 0 -0.166666667
0.666666667 0 -0.166666667
0.833333333 0 0.166666667
0.666666667 0 0.166666667
0.866025404 -0.5 -0.166666667
0.721687836 -0.416666667 -0.166666667
0.866025404 -0.5 0.166666667
0.721687836 -0.416666667 0.166666667
1 0 -0.166666667
0.833333333 0 -0.166666667
1 0 0.166666667
0.833333333 0 0.166666667
0.721687836 -0.416666667 -0.5
0.577350269 -0.333333333 -0.5
0.721687836 -0.416666667 -0.166666667
0.577350269 -0.333333333 -0.166666667
0.833333333 0 -0.5
0.666666667 0 -0.5
0.833333333 0 -0.166666667
0.666666667 0 -0.166666667
0.866025404 -0.5 -0.5
0.721687836 -0.416666667 -0.5
0.866025404 -0.5 -0.166666667
0.721687836 -0.416666667 -0.166666667
1 0 -0.5
0.833333333 0 -0.5
1 0 -0.166666667
0.833333333 0 -0.166666667
0.416666667 -0.721687836 0.166666667
0.333333333 -0.577350269 0.166666667
0.416666667 -0.721687836 0.5
0.333333333 -0.577350269 0.5
0.721687836 -0.416666667 0.166666667
0.577350269 -0.333333333 0.166666667
0.721687836 -0.416666667 0.5
0.577350269 -0.333333333 0.5
0.5 -0.866025404 0.166666667
0.416666667 -0.721687836 0.166666667
0.5 -0.866025404 0.5
0.416666667 -0.721687836 0.5
0.866025404 -0.5 0.166666667
0.721687836 -0.416666667 0.166666667
0.866025404 -0.5 0.5
0.721687836 -0.416666667 0.5
0.416666667 -0.721687836 -0.166666667
0.333333333 -0.577350269 -0.166666667
0.416666667 -0.721687836 0.166666667
0.333333333 -0.577350269 0.166666667
0.721687836 -0.416666667 -0.166666667
0.577350269 -0.333333333 -0.166666667
0.721687836 -0.416666667 0.166666667
0.577350269 -0.333333333 0.166666667
0.5 -0.866025404 -0.166666667
0.416666667 -0.721687836 -0.166666667
0.5 -0.866025404 0.166666667
0.416666667 -0.721687836 0.166666667
0.866025404 -0.5 -0.166666667
0.721687836 -0.416666667 -0.166666667
0.866025404 -0.5 0.166666667
0.721687836 -0.416666667 0.166666667
0.416666667 -0.721687836 -0.5
0.333333333 -0.577350269 -0.5
0.416666667 -0.721687836 -0.166666667
0.333333333 -0.577350269 -0.166666667
0.721687836 -0.416666667 -0.5
0.577350269 -0.333333333 -0.5
0.721687836 -0.416666667 -0.166666667
0.577350269 -0.333333333 -0.166666667
0.5 -0.866025404 -0.5
0.416666667 -0.721687836 -0.5
0.5 -0.866025404 -0.166666667
0.416666667 -0.721687836 -0.166666667
0.866025404 -0.5 -0.5
0.721687836 -0.416666667 -0.5
0.866025404 -0.5 -0.166666667
0.721687836 -0.416666667 -0.166666667
0 -0.833333333 0.166666667
0 -0.666666667 0.166666667
0 -0.833333333 0.5
0 -0.666666667 0.5
0.416666667 -0.721687836 0.166666667
0.333333333 -0.577350269 0.166666667
0.416666667 -0.721687836 0.5
0.333333333 -0.577350269 0.5
0 -1 0.166666667
0 -0.833333333 0.166666667
0 -1 0.5
0 -0.833333333 0.5
0.5 -0.866025404 0.166666667
0.416666667 -0.721687836 0.166666667
0.5 -0.866025404 0.5
0.416666667 -0.721687836 0.5
0 -0.833333333 -0.166666667
0 -0.666666667 -0.166666667
0 -0.833333333 0.166666667
0 -0.666666667 0.166666667
0.416666667 -0.721687836 -0.166666667
0.333333333 -0.577350269 -0.166666667
0.416666667 -0.721687836 0.166666667
0.333333333 -0.577350269 0.166666667
0 -1 -0.166666667
0 -0.833333333 -0.166666667
0 -1 0.166666667
0 -0.833333333 0.166666667
0.5 -0.866025404 -0.166666667
0.416666667 -0.721687836 -0.166666667
0.5 -0.866025404 0.166666667
0.416666667 -0.721687836 0.166666667
-0.721687836 0.416666667 0.166666667
-0.866025404 0.5 0.166666667
-0.721687836 0.416666667 0.5
-0.866025404 0.5 0.5
-0.416666667 0.721687836 0.166666667
-0.5 0.866025404 0.166666667
-0.416666667 0.721687836 0.5
-0.5 0.866025404 0.5
-0.577350269 0.333333333 -0.166666667
-0.721687836 0.416666667 -0.166666667
-0.577350269 0.333333333 0.166666667
-0.721687836 0.416666667 0.166666667
-0.333333333 0.577350269 -0.166666667
-0.416666667 0.721687836 -0.166666667
-0.333333333 0.577350269 0.166666667
-0.416666667 0.721687836 0.166666667
-0.721687836 0.416666667 -0.166666667
-0.866025404 0.5 -0.166666667
-0.721687836 0.416666667 0.166666667
-0.866025404 0.5 0.166666667
-0.416666667 0.721687836 -0.166666667
-0.5 0.866025404 -0.166666667
-0.416666667 0.721687836 0.166666667
-0.5 0.866025404 0.166666667
-0.577350269 0.333333333 -0.5
-0.721687836 0.416666667 -0.5
-0.577350269 0.333333333 -0.166666667
-0.721687836 0.416666667 -0.166666667
-0.333333333 0.577350269 -0.5
-0.416666667 0.721687836 -0.5
-0.333333333 0.577350269 -0.166666667
-0.416666667 0.721687836 -0.166666667
-0.721687836 0.416666667 -0.5
-0.866025404 0.5 -0.5
-0.721687836 0.416666667 -0.166666667
-0.866025404 0.5 -0.166666667
-0.416666667 0.721687836 -0.5
-0.5 0.866025404 -0.5
-0.416666667 0.721687836 -0.166666667
-0.5 0.866025404 -0.166666667
-0.25 0.433012702 0.166666667
-0.333333333 0.577350269 0.166666667
-0.25 0.433012702 0.5
-0.333333333 0.577350269 0.5
0 0.5 0.166666667
0 0.666666667 0.166666667
0 0.5 0.5
0 0.666666667 0.5
-0.333333333 0.577350269 0.166666667
-0.416666667 0.721687836 0.166666667
-0.333333333 0.577350269 0.5
-0.416666667 0.721687836 0.5
0 0.666666667 0.166666667
0 0.833333333 0.166666667
0 0.666666667 0.5
0 0.833333333 0.5
-0.416666667 0.721687836 0.166666667
-0.5 0.866025404 0.166666667
-0.416666667 0.721687836 0.5
-0.5 0.866025404 0.5
0 0.833333333 0.166666667
0 1 0.166666667
0 0.833333333 0.5
0 1 0.5
-0.25 0.433012702 -0.166666667
-0.333333333 0.577350269 -0.166666667
-0.25 0.433012702 0.166666667
-0.333333333 0.577350269 0.166666667
0 0.5 -0.166666667
0 0.666666667 -0.166666667
0 0.5 0.166666667
0 0.666666667 0.166666667
-0.333333333 0.577350269 -0.166666667
-0.416666667 0.721687836 -0.166666667
-0.333333333 0.577350269 0.166666667
-0.416666667 0.721687836 0.166666667
0 0.666666667 -0.166666667
0 0.833333333 -0.166666667
0 0.666666667 0.166666667
0 0.833333333 0.166666667
-0.416666667 0.721687836 -0.166666667
-0.5 0.866025404 -0.166666667
-0.416666667 0.721687836 0.166666667
-0.5 0.866025404 0.166666667
0 0.833333333 -0.166666667
0 1 -0.166666667
0 0.833333333 0.166666667
0 1 0.166666667
-0.25 0.433012702 -0.5
-0.333333333 0.577350269 -0.5
-0.25 0.433012702 -0.166666667
-0.333333333 0.577350269 -0.166666667
0 0.5 -0.5
0 0.666666667 -0.5
0 0.5 -0.166666667
0 0.666666667 -0.166666667
-0.333333333 0.577350269 -0.5
-0.416666667 0.721687836 -0.5
-0.333333333 0.577350269 -0.166666667
-0.416666667 0.721687836 -0.166666667
0 0.666666667 -0.5
0 0.833333333 -0.5
0 0.666666667 -0.166666667
0 0.833333333 -0.166666667
-0.416666667 0.721687836 -0.5
-0.5 0.866025404 -0.5
-0.416666667 0.721687836 -0.166666667
-0.5 0.866025404 -0.166666667
0 0.833333333 -0.5
0 1 -0.5
0 0.833333333 -0.166666667
0 1 -0.166666667
</DataArray>
</Points>
<Cells>
<DataArray type="Int32" Name="connectivity" format="ascii">
0 1 3 2 4 5 7 6 
8 9 11 10 12 13 15 14 
16 17 19 18 20 21 23 22 
24 25 27 26 28 29 31 30 
32 33 35 34 36 37 39 38 
40 41 43 42 44 45 47 46 
48 49 51 50 52 53 55 54 
56 57 59 58 60 61 63 62 
64 65 67 66 68 69 71 70 
72 73 75 74 76 77 79 78 
80 81 83 82 84 85 87 86 
88 89 91 90 92 93 95 94 
96 97 99 98 100 101 103 102 
104 105 107 106 108 109 111 110 
112 113 115 114 116 117 119 118 
120 121 123 122 124 125 127 126 
128 129 131 130 132 133 135 134 
136 137 139 138 140 141 143 142 
144 145 147 146 148 149 151 150 
152 153 155 154 156 157 159 158 
160 161 163 162 164 165 167 166 
168 169 171 170 172 173 175 174 
176 177 179 178 180 181 183 182 
184 185 187 186 188 189 191 190 
192 193 195 194 196 197 199 198 
200 201 203 202 204 205 207 206 
208 209 211 210 212 213 215 214 
216 217 219 218 220 221 223 222 
224 225 227 226 228 229 231 230 
232 233 235 234 236 237 239 238 
240 241 243 242 244 245 247 246 
248 249 251 250 252 253 255 254 
256 257 259 258 260 261 263 262 
264 265 267 266 268 269 271 270 
272 273 275 274 276 277 279 278 
280 281 283 282 284 285 287 286 
288 289 291 290 292 293 295 294 
296 297 299 298 300 301 303 302 
304 305 307 306 308 309 311 310 
312 313 315 314 316 317 319 318 
320 321 323 322 324 325 327 326 
328 329 331 330 332 333 335 334 
336 337 339 338 340 341 343 342 
344 345 347 346 348 349 351 350 
352 353 355 354 356 357 359 358 
360 361 363 362 364 365 367 366 
368 369 371 370 372 373 375 374 
376 377 379 378 380 381 383 382 
384 385 387 386 388 389 391 390 
392 393 395 394 396 397 399 398 
400 401 403 402 404 405 407 406 
</DataArray>
<DataArray type="Int32" Name="offsets" format="ascii">
8
16
24
32
40
48
56
64
72
80
88
96
104
112
120
128
136
144
152
160
168
176
184
192
200
208
216
224
232
240
248
256
264
272
280
288
296
304
312
320
328
336
344
352
360
368
376
384
392
400
408
</DataArray>
<DataArray type="UInt8" Name="types" format="ascii">
12
12
12
12
12
12
12
12
12
12
12
12
12
12
12
12
12
12
12
12
12
12
12
12
12
12
12
12
12
12
12
12
12
12
12
12
12
12
12
12
12
12
12
12
12
12
12
12
12
12
12
</DataArray>
</Cells>
<CellData Scalars="attribute">
<DataArray type="Int32" Name="attribute" format="ascii">
2
2
2
2
2
2
2
2
2
2
2
2
2
2
2
2
2
2
2
2
2
2
2
2
2
2
2
2
2
2
2
2
2
2
2
2
2
2
2
2
2
2
2
2
2
2
2
2
2
2
2
</DataArray>
</CellData>
<PointData >
<DataArray type="Float64" Name="a_field" NumberOfComponents="3" ComponentName0="0" ComponentName1="1" ComponentName2="2" format="ascii" >
-0.00308756592 -0.000458853408 0.027181511 
-0.00308756592 -0.000401471293 0.0529258459 
0 0 0.027181511 
0 0 0.0529258459 
-0.00320233015 -0.000489604391 0.0266039068 
-0.00323102121 -0.000439910021 0.052103792 
0 0 0.0266039068 
0 0 0.052103792 
0.00346807496 1.50449663e-05 0 
0.00346807496 0.00129772527 0.027181511 
0 0 0 
0 0 0.027181511 
0.00221123184 0.0012638971 -8.41924596e-19 
0.0023627028 0.0010015417 0.0266039068 
0 0 0 
0 0 0.0266039068 
-0.0050954043 -0.00123988673 0.0261481743 
-0.0050954043 -0.00133163685 0.0524323729 
-0.00308756592 -0.000458853408 0.0261481743 
-0.00308756592 -0.000401471293 0.0524323729 
-0.00491190406 -0.00119071799 0.0263349351 
-0.004866029 -0.00127017592 0.0524283254 
-0.00320233015 -0.000489604391 0.0263349351 
-0.00323102121 -0.000439910021 0.0524283254 
0.00486947654 2.11244311e-05 0 
0.00486947654 0.00143019505 0.0261481743 
0.00346807496 1.50449663e-05 0 
0.00346807496 0.00129772527 0.0261481743 
0.00395542428 0.00226084356 0 
0.00449320832 0.00132937428 0.0263349351 
0.00221123184 0.0012638971 8.41924596e-19 
0.0023627028 0.0010015417 0.0263349351 
0 0 0.0230127352 
0 0 0.0528485552 
-0.0050954043 -0.00123988673 0.0230127352 
-0.0050954043 -0.00133163685 0.0528485552 
0 0 0.0230524812 
0 0 0.0524860135 
-0.00491190406 -0.00119071799 0.0230524812 
-0.004866029 -0.00127017592 0.0524860135 
0 0 0 
0 0 0.0230127352 
0.00486947654 2.11244311e-05 0 
0.00486947654 0.00143019505 0.0230127352 
0 0 0 
0 0 0.0230524812 
0.00395542428 0.00226084356 1.50602435e-18 
0.00449320832 0.00132937428 0.0230524812 
-0.00246442064 -0.00176770116 0.0266039068 
-0.00217216395 -0.0022739046 0.052103792 
0 0 0.0266039068 
0 0 0.052103792 
-0.00160863365 -0.000911914164 0.0260080245 
-0.0011024302 -0.00120417086 0.0522618303 
0 0 0.0260080245 
0 0 0.0522618303 
0.00220018292 0.0012830344 -8.54672598e-19 
0.00160946623 0.00230618571 0.0266039068 
0 0 0 
0 0 0.0266039068 
0.000640701415 0.00109869253 -6.10166736e-19 
0.000489353694 0.00118607318 0.0260080245 
0 0 0 
0 0 0.0260080245 
-0.00416306876 -0.00248773877 0.0263349351 
-0.00401613463 -0.00274223615 0.0524283254 
-0.00246442064 -0.00176770116 0.0263349351 
-0.00217216395 -0.0022739046 0.0524283254 
-0.00373281576 -0.00205748578 0.0254811047 
-0.00347831838 -0.00220441991 0.0515048467 
-0.00160863365 -0.000911914164 0.0254811047 
-0.0011024302 -0.00120417086 0.0515048467 
0.0039356601 0.00229507613 0 
0.00272195135 0.00439728134 0.0263349351 
0.00220018292 0.0012830344 8.54672598e-19 
0.00160946623 0.00230618571 0.0263349351 
0.000750523782 0.00128701896 7.14755166e-19 
2.85314461e-05 0.00170386143 0.0254811047 
0.000640701415 0.00109869253 6.10166736e-19 
0.000489353694 0.00118607318 0.0254811047 
0 0 0.0230524812 
0 0 0.0524860135 
-0.00416306876 -0.00248773877 0.0230524812 
-0.00401613463 -0.00274223615 0.0524860135 
0 0 0.0246271748 
0 0 0.0535021308 
-0.00373281576 -0.00205748578 0.0246271748 
-0.00347831838 -0.00220441991 0.0535021308 
0 0 0 
0 0 0.0230524812 
0.0039356601 0.00229507613 1.52882781e-18 
0.00272195135 0.00439728134 0.0230524812 
0 0 0 
0 0 0.0246271748 
0.000750523782 0.00128701896 -4.9994927e-19 
2.85314461e-05 0.00170386143 0.0246271748 
0.00110904362 0.00351389969 0.0522618303 
0.00200601167 0.00299603495 0.0861506368 
0 0 0.0522618303 
0 0 0.0861506368 
0.00115137812 0.00367189419 0.0529647474 
0.000270775825 0.00367189419 0.0884973198 
0 0 0.0529647474 
0 0 0.0884973198 
-0.000749799481 -0.0014077623 0.0260080245 
-0.000282069776 -0.00167780617 0.0522618303 
0 0 0.0260080245 
0 0 0.0522618303 
-0.000460367332 -0.000327586814 0.0257091127 
7.97204105e-05 -0.000327586814 0.0529647474 
0 0 0.0257091127 
0 0 0.0529647474 
0.000631144933 0.00110420997 -6.30249229e-19 
1.81171819e-05 0.0014581417 0.0260080245 
0 0 0 
0 0 0.0260080245 
1.47656807e-06 0.000340369573 0 
-0.000281388958 0.000340369573 0.0257091127 
0 0 0 
0 0 0.0257091127 
5.31000843e-05 -0.00775017148 0.0515048467 
-0.00103981164 -0.0071191786 0.0784533573 
0.00110904362 0.00351389969 0.0515048467 
0.00200601167 0.00299603495 0.0784533573 
0.000328775873 -0.00672133542 0.054002522 
0.00260092628 -0.00672133542 0.0825025325 
0.00115137812 0.00367189419 0.054002522 
0.000270775825 0.00367189419 0.0825025325 
4.93961912e-05 -0.00424114687 0.0254811047 
0.000866875851 -0.00471311897 0.0515048467 
-0.000749799481 -0.0014077623 0.0254811047 
-0.000282069776 -0.00167780617 0.0515048467 
0.000555254365 -0.00235325846 0.0275959297 
0.00149919857 -0.00235325846 0.054002522 
-0.000460367332 -0.000327586814 0.0275959297 
7.97204105e-05 -0.000327586814 0.054002522 
0.000739329228 0.00129348214 7.38279991e-19 
0.00142614482 0.000896948975 0.0254811047 
0.000631144933 0.00110420997 6.30249229e-19 
1.81171819e-05 0.0014581417 0.0254811047 
1.9323658e-05 0.00445437318 0 
0.00237935377 0.00445437318 0.0275959297 
1.47656807e-06 0.000340369573 0 
-0.000281388958 0.000340369573 0.0275959297 
0 0 0.0535021308 
0 0 0.0889347609 
5.31000843e-05 -0.00775017148 0.0535021308 
-0.00103981164 -0.0071191786 0.0889347609 
0 0 0.0519077986 
0 0 0.0889650916 
0.000328775873 -0.00672133542 0.0519077986 
0.00260092628 -0.00672133542 0.0889650916 
0 0 0.0246271748 
0 0 0.0535021308 
4.93961912e-05 -0.00424114687 0.0246271748 
0.000866875851 -0.00471311897 0.0535021308 
0 0 0.0233117413 
0 0 0.0519077986 
0.000555254365 -0.00235325846 0.0233117413 
0.00149919857 -0.00235325846 0.0519077986 
0 0 0 
0 0 0.0246271748 
0.000739329228 0.00129348214 -4.92492199e-19 
0.00142614482 0.000896948975 0.0246271748 
0 0 0 
0 0 0.0233117413 
1.9323658e-05 0.00445437318 0 
0.00237935377 0.00445437318 0.0233117413 
-0.00337615994 -0.000540215437 0.0252578856 
-0.00344830844 -0.000665180311 0.0509430381 
0 0 0.0252578856 
0 0 0.0509430381 
-0.00308756592 -0.00061754397 0.027181511 
-0.00308756592 -0.000761840977 0.0529258459 
0 0 0.027181511 
0 0 0.0529258459 
-0.000125073787 7.14897434e-05 4.76217355e-20 
-0.000866489331 -0.00121267965 0.0252578856 
0 0 0 
0 0 0.0252578856 
0.00346807496 -1.50449663e-05 0 
0.00346807496 -0.00237412265 0.027181511 
0 0 0 
0 0 0.027181511 
-0.00371837104 -0.000843422477 0.0255369896 
-0.00337411272 -0.000247149583 0.0524766284 
-0.00337615994 -0.000540215437 0.0255369896 
-0.00344830844 -0.000665180311 0.0524766284 
-0.0050954043 -0.000474447526 0.0261481743 
-0.0050954043 0.000214069106 0.0524323729 
-0.00308756592 -0.00061754397 0.0261481743 
-0.00308756592 -0.000761840977 0.0524323729 
0.000234485483 -0.00013402734 0 
-0.000649794441 -0.0016656451 0.0255369896 
-0.000125073787 7.14897434e-05 0 
-0.000866489331 -0.00121267965 0.0255369896 
0.00486947654 -2.11244311e-05 0 
0.00486947654 -0.0031445293 0.0261481743 
0.00346807496 -1.50449663e-05 0 
0.00346807496 -0.00237412265 0.0261481743 
0 0 0.0251948746 
0 0 0.0536061396 
-0.00371837104 -0.000843422477 0.0251948746 
-0.00337411272 -0.000247149583 0.0536061396 
0 0 0.0230127352 
0 0 0.0528485552 
-0.0050954043 -0.000474447526 0.0230127352 
-0.0050954043 0.000214069106 0.0528485552 
0 0 0 
0 0 0.0251948746 
0.000234485483 -0.00013402734 8.92801435e-20 
-0.000649794441 -0.0016656451 0.0251948746 
0 0 0 
0 0 0.0230127352 
0.00486947654 -2.11244311e-05 0 
0.00486947654 -0.0031445293 0.0230127352 
-0.00331279346 -0.00176606146 0.0206445245 
-0.00302362758 -0.00159911146 0.0476178626 
0 0 0.0206445245 
0 0 0.0476178626 
-0.00380165698 -0.00127719794 0.0252578856 
-0.00363470699 -0.000988032061 0.0509430381 
0 0 0.0252578856 
0 0 0.0509430381 
-0.00475496751 0.00815394997 -3.16744465e-18 
-0.010129701 0.00505084612 0.0206445245 
0 0 0 
0 0 0.0206445245 
-0.000124448827 7.25722053e-05 4.83428e-20 
-0.00196445059 -0.00311440433 0.0252578856 
0 0 0 
0 0 0.0252578856 
0.00349235503 -0.0120520251 0.0223859363 
0.00862311097 -0.00908978182 0.0555779858 
-0.00331279346 -0.00176606146 0.0223859363 
-0.00302362758 -0.00159911146 0.0555779858 
-0.00518169544 -0.00337797468 0.0255369896 
-0.00221945211 0.00175278126 0.0524766284 
-0.00380165698 -0.00127719794 0.0255369896 
-0.00363470699 -0.000988032061 0.0524766284 
-0.00775543847 0.0132992407 7.3858282e-18 
-0.0166966816 0.00813701151 0.0223859363 
-0.00475496751 0.00815394997 4.5283543e-18 
-0.010129701 0.00505084612 0.0223859363 
0.000233313823 -0.000136056715 0 
-0.00293534146 -0.00562432866 0.0255369896 
-0.000124448827 7.25722053e-05 0 
-0.00196445059 -0.00311440433 0.0255369896 
0 0 0.03306163 
0 0 0.0540066707 
0.00349235503 -0.0120520251 0.03306163 
0.00862311097 -0.00908978182 0.0540066707 
0 0 0.0251948746 
0 0 0.0536061396 
-0.00518169544 -0.00337797468 0.0251948746 
-0.00221945211 0.00175278126 0.0536061396 
0 0 0 
0 0 0.03306163 
-0.00775543847 0.0132992407 -7.3858282e-18 
-0.0166966816 0.00813701151 0.03306163 
0 0 0 
0 0 0.0251948746 
0.000233313823 -0.000136056715 9.06319788e-20 
-0.00293534146 -0.00562432866 0.0251948746 
0.000406288918 0.000503303187 0.0214958579 
0.000353395795 0.000503303187 0.0486636344 
0 0 0.0214958579 
0 0 0.0486636344 
0.000434634257 0.00039751694 0.0206445245 
0.000388827469 0.000371070379 0.0476178626 
0 0 0.0206445245 
0 0 0.0476178626 
-3.50787415e-05 0.00808614007 0 
-0.0016255261 0.00808614007 0.0214958579 
0 0 0 
0 0 0.0214958579 
-0.00468404406 0.00819489764 -3.12020014e-18 
-0.00206052709 0.00970958587 0.0206445245 
0 0 0 
0 0 0.0206445245 
0.00394372616 -0.000902220475 0.0265118693 
-0.000771438106 -0.000902220475 0.0546340592 
0.000406288918 0.000503303187 0.0265118693 
0.000353395795 0.000503303187 0.0546340592 
0.00647057507 -0.010332549 0.0223859363 
0.00238712304 -0.0126901311 0.0555779858 
0.000434634257 0.00039751694 0.0223859363 
0.000388827469 0.000371070379 0.0555779858 
-2.66372452e-05 0.00614025722 0 
0.00205669995 0.00614025722 0.0265118693 
-3.50787415e-05 0.00808614007 0 
-0.0016255261 0.00808614007 0.0265118693 
-0.00763976102 0.0133660271 7.62891888e-18 
-0.000919125223 0.0172461879 0.0223859363 
-0.00468404406 0.00819489764 4.67739659e-18 
-0.00206052709 0.00970958587 0.0223859363 
-0.00108858172 -0.00445027001 0.0246887188 
0.00110780555 -0.000646015662 -6.15227716e-19 
0 0 0.0246887188 
0 0 0 
-0.00999336681 0.00445451508 0.0297912336 
-0.00446046872 0.00764893528 -1.6946473e-18 
0 0 0.0297912336 
0 0 0 
-0.00503106107 0.00358856548 0.0560585117 
-0.00692581777 0.000306750615 0.0260848971 
-0.00172088062 -0.00252441723 0.0560585117 
-0.0021943542 -0.00334449753 0.0260848971 
0.00190422977 -0.00334672537 0.0540656224 
-0.00137758509 -0.00524148206 0.0271074765 
1.21529671e-05 -0.00425745082 0.0540656224 
-0.000807927331 -0.0047309244 0.0271074765 
-0.00258933615 -0.004029731 0.0260848971 
-0.000196583801 0.000114637641 0 
-0.00108858172 -0.00445027001 0.0260848971 
0.00110780555 -0.000646015662 0 
-0.0132307783 0.00661171119 0.0271074765 
-0.00621701494 0.0106611094 -1.77935929e-18 
-0.00999336681 0.00445451508 0.0271074765 
-0.00446046872 0.00764893528 -1.27662174e-18 
0 0 0.0491524979 
0 0 0.0252161339 
-0.00503106107 0.00358856548 0.0491524979 
-0.00692581777 0.000306750615 0.0252161339 
0 0 0.0481554223 
0 0 0.0191933808 
0.00190422977 -0.00334672537 0.0481554223 
-0.00137758509 -0.00524148206 0.0191933808 
0 0 0.0252161339 
0 0 0 
-0.00258933615 -0.004029731 0.0252161339 
-0.000196583801 0.000114637641 0 
0 0 0.0191933808 
0 0 0 
-0.0132307783 0.00661171119 0.0191933808 
-0.00621701494 0.0106611094 2.36200459e-18 
0.000725237024 -0.00148775278 0.0862002739 
0.00267175776 -0.000363928508 0.0549814745 
0 0 0.0862002739 
0 0 0.0549814745 
-0.000124569391 0.00367189419 0.0884973198 
0.00159036233 0.00367189419 0.0529647474 
0 0 0.0884973198 
0 0 0.0529647474 
0.00321893328 -0.00240601534 0.0549814745 
0.00393892204 -0.00199032964 0.0297912336 
0 0 0.0549814745 
0 0 0.0297912336 
0.00266202003 -0.000327586814 0.0529647474 
0.00349339144 -0.000327586814 0.0257091127 
0 0 0.0529647474 
0 0 0.0257091127 
0.000576817846 0.010557214 0.0297912336 
-0.00439393791 0.00768734687 -1.46619909e-18 
0 0 0.0297912336 
0 0 0 
0.00331441307 0.000340369573 0.0257091127 
-1.47656807e-06 0.000340369573 0 
0 0 0.0257091127 
0 0 0 
0.00659016549 -0.00908468054 0.0813541485 
0.00575785224 -0.00956521682 0.0540656224 
0.000725237024 -0.00148775278 0.0813541485 
0.00267175776 -0.000363928508 0.0540656224 
0.00124249353 -0.00672133542 0.0825025325 
0.00499583651 -0.00672133542 0.054002522 
-0.000124569391 0.00367189419 0.0825025325 
0.00159036233 0.00367189419 0.054002522 
0.00379855876 -0.00225303402 0.0540656224 
0.00376383999 -0.00227307891 0.0271074765 
0.00321893328 -0.00240601534 0.0540656224 
0.00393892204 -0.00199032964 0.0271074765 
0.00382541382 -0.00235325846 0.054002522 
0.00378532404 -0.00235325846 0.0275959297 
0.00266202003 -0.000327586814 0.054002522 
0.00349339144 -0.000327586814 0.0275959297 
-0.000574729852 0.0139186842 0.0271074765 
-0.00612428409 0.0107146476 -2.03599994e-18 
0.000576817846 0.010557214 0.0271074765 
-0.00439393791 0.00768734687 -1.46075153e-18 
0.00196122464 0.00445437318 0.0275959297 
-1.9323658e-05 0.00445437318 0 
0.00331441307 0.000340369573 0.0275959297 
-1.47656807e-06 0.000340369573 0 
0 0 0.0857810701 
0 0 0.0481554223 
0.00659016549 -0.00908468054 0.0857810701 
0.00575785224 -0.00956521682 0.0481554223 
0 0 0.0889650916 
0 0 0.0519077986 
0.00124249353 -0.00672133542 0.0889650916 
0.00499583651 -0.00672133542 0.0519077986 
0 0 0.0481554223 
0 0 0.0191933808 
0.00379855876 -0.00225303402 0.0481554223 
0.00376383999 -0.00227307891 0.0191933808 
0 0 0.0519077986 
0 0 0.0233117413 
0.00382541382 -0.00235325846 0.0519077986 
0.00378532404 -0.00235325846 0.0233117413 
0 0 0.0191933808 
0 0 0 
-0.000574729852 0.0139186842 0.0191933808 
-0.00612428409 0.0107146476 2.04359278e-18 
0 0 0.0233117413 
0 0 0 
0.00196122464 0.00445437318 0.0233117413 
-1.9323658e-05 0.00445437318 0 
</DataArray>
<DataArray type="Float64" Name="b_field" NumberOfComponents="3" ComponentName0="0" ComponentName1="1" ComponentName2="2" format="ascii" >
-0.0441518527 0.163728707 -1.87350135e-16 
-0.045059618 0.163728707 -2.34187669e-16 
-0.0441518527 0.163728707 0 
-0.045059618 0.163728707 0 
-0.0436653827 0.161913177 -1.87350135e-16 
-0.0444515306 0.161459294 -2.34187669e-16 
-0.0436653827 0.161913177 0 
-0.0444515306 0.161459294 0 
-0.000662366966 0.152684841 -3.6094419e-16 
-0.0411926576 0.152684841 -4.63691585e-16 
-0.000662366966 0.152684841 0 
-0.0411926576 0.152684841 0 
-0.0754203346 0.131950493 -3.924671e-16 
-0.0409668747 0.151842207 -4.63691585e-16 
-0.0754203346 0.131950493 0 
-0.0409668747 0.151842207 0 
-0.0441518527 0.163728707 1.70176373e-16 
-0.045059618 0.163728707 2.11928671e-16 
-0.0441518527 0.163728707 -1.87350135e-16 
-0.045059618 0.163728707 -2.34187669e-16 
-0.0436653827 0.161913177 1.70176373e-16 
-0.0444515306 0.161459294 2.11928671e-16 
-0.0436653827 0.161913177 -1.87350135e-16 
-0.0444515306 0.161459294 -2.34187669e-16 
-0.000662366966 0.152684841 1.83439599e-16 
-0.0411926576 0.152684841 2.76528552e-16 
-0.000662366966 0.152684841 -3.6094419e-16 
-0.0411926576 0.152684841 -4.63691585e-16 
-0.0754203346 0.131950493 1.83585243e-16 
-0.0409668747 0.151842207 2.76528552e-16 
-0.0754203346 0.131950493 -3.924671e-16 
-0.0409668747 0.151842207 -4.63691585e-16 
-0.0441518527 0.163728707 0 
-0.045059618 0.163728707 0 
-0.0441518527 0.163728707 1.70176373e-16 
-0.045059618 0.163728707 2.11928671e-16 
-0.0436653827 0.161913177 0 
-0.0444515306 0.161459294 0 
-0.0436653827 0.161913177 1.70176373e-16 
-0.0444515306 0.161459294 2.11928671e-16 
-0.000662366966 0.152684841 0 
-0.0411926576 0.152684841 0 
-0.000662366966 0.152684841 1.83439599e-16 