<VTKFile type="UnstructuredGrid" version="2.2" byte_order="LittleEndian">
<UnstructuredGrid>
<Piece NumberOfPoints="408" NumberOfCells="51">
<Points>
<DataArray type="Float64" NumberOfComponents="3" format="ascii">
0 0 0.166666667
0.166666667 0 0.166666667
0.1 0.1 0.166666667
0.208333333 0.125 0.166666667
0 0 0.5
0.166666667 0 0.5
0.1 0.1 0.5
0.208333333 0.125 0.5
0.3 0.1 0.166666667
0.375 0.125 0.166666667
0.208333333 0.125 0.166666667
0.25 0.25 0.166666667
0.3 0.1 0.5
0.375 0.125 0.5
0.208333333 0.125 0.5
0.25 0.25 0.5
0.333333333 0 0.166666667
0.5 0 0.166666667
0.3 0.1 0.166666667
0.375 0.125 0.166666667
0.333333333 0 0.5
0.5 0 0.5
0.3 0.1 0.5
0.375 0.125 0.5
0.166666667 0 0.166666667
0.333333333 0 0.166666667
0.208333333 0.125 0.166666667
0.3 0.1 0.166666667
0.166666667 0 0.5
0.333333333 0 0.5
0.208333333 0.125 0.5
0.3 0.1 0.5
0 0 -0.166666667
0.166666667 0 -0.166666667
0.1 0.1 -0.166666667
0.208333333 0.125 -0.166666667
0 0 0.166666667
0.166666667 0 0.166666667
0.1 0.1 0.166666667
0.208333333 0.125 0.166666667
0.3 0.1 -0.166666667
0.375 0.125 -0.166666667
0.208333333 0.125 -0.166666667
0.25 0.25 -0.166666667
0.3 0.1 0.166666667
0.375 0.125 0.166666667
0.208333333 0.125 0.166666667
0.25 0.25 0.166666667
0.333333333 0 -0.166666667
0.5 0 -0.166666667
0.3 0.1 -0.166666667
0.375 0.125 -0.166666667
0.333333333 0 0.166666667
0.5 0 0.166666667
0.3 0.1 0.166666667
0.375 0.125 0.166666667
0.166666667 0 -0.166666667
0.333333333 0 -0.166666667
0.208333333 0.125 -0.166666667
0.3 0.1 -0.166666667
0.166666667 0 0.166666667
0.333333333 0 0.166666667
0.208333333 0.125 0.166666667
0.3 0.1 0.166666667
0 0 -0.5
0.166666667 0 -0.5
0.1 0.1 -0.5
0.208333333 0.125 -0.5
0 0 -0.166666667
0.166666667 0 -0.166666667
0.1 0.1 -0.166666667
0.208333333 0.125 -0.166666667
0.3 0.1 -0.5
0.375 0.125 -0.5
0.208333333 0.125 -0.5
0.25 0.25 -0.5
0.3 0.1 -0.166666667
0.375 0.125 -0.166666667
0.208333333 0.125 -0.166666667
0.25 0.25 -0.166666667
0.333333333 0 -0.5
0.5 0 -0.5
0.3 0.1 -0.5
0.375 0.125 -0.5
0.333333333 0 -0.166666667
0.5 0 -0.166666667
0.3 0.1 -0.166666667
0.375 0.125 -0.166666667
0.166666667 0 -0.5
0.333333333 0 -0.5
0.208333333 0.125 -0.5
0.3 0.1 -0.5
0.166666667 0 -0.166666667
0.333333333 0 -0.166666667
0.208333333 0.125 -0.166666667
0.3 0.1 -0.166666667
0.4 -0.1 0.166666667
0.291666667 -0.125 0.166666667
0.341506351 -0.25 0.166666667
0.25 -0.25 0.166666667
0.4 -0.1 0.5
0.291666667 -0.125 0.5
0.341506351 -0.25 0.5
0.25 -0.25 0.5
0.5 0 0.166666667
0.333333333 0 0.166666667
0.4 -0.1 0.166666667
0.291666667 -0.125 0.166666667
0.5 0 0.5
0.333333333 0 0.5
0.4 -0.1 0.5
0.291666667 -0.125 0.5
0.433012702 -0.25 0.166666667
0.5 0 0.166666667
0.341506351 -0.25 0.166666667
0.4 -0.1 0.166666667
0.433012702 -0.25 0.5
0.5 0 0.5
0.341506351 -0.25 0.5
0.4 -0.1 0.5
0.25 -0.359807621 0.166666667
0.341506351 -0.25 0.166666667
0.125 -0.375 0.166666667
0.25 -0.25 0.166666667
0.25 -0.359807621 0.5
0.341506351 -0.25 0.5
0.125 -0.375 0.5
0.25 -0.25 0.5
0.25 -0.433012702 0.166666667
0.433012702 -0.25 0.166666667
0.25 -0.359807621 0.166666667
0.341506351 -0.25 0.166666667
0.25 -0.433012702 0.5
0.433012702 -0.25 0.5
0.25 -0.359807621 0.5
0.341506351 -0.25 0.5
0 -0.5 0.166666667
0.25 -0.433012702 0.166666667
0.125 -0.375 0.166666667
0.25 -0.359807621 0.166666667
0 -0.5 0.5
0.25 -0.433012702 0.5
0.125 -0.375 0.5
0.25 -0.359807621 0.5
0.1 -0.25 0.166666667
0.125 -0.375 0.166666667
0.125 -0.125 0.166666667
0.25 -0.25 0.166666667
0.1 -0.25 0.5
0.125 -0.375 0.5
0.125 -0.125 0.5
0.25 -0.25 0.5
0.2 -0.1 0.166666667
0.125 -0.125 0.166666667
0.291666667 -0.125 0.166666667
0.25 -0.25 0.166666667
0.2 -0.1 0.5
0.125 -0.125 0.5
0.291666667 -0.125 0.5
0.25 -0.25 0.5
0.166666667 0 0.166666667
0 0 0.166666667
0.2 -0.1 0.166666667
0.125 -0.125 0.166666667
0.166666667 0 0.5
0 0 0.5
0.2 -0.1 0.5
0.125 -0.125 0.5
0.333333333 0 0.166666667
0.166666667 0 0.166666667
0.291666667 -0.125 0.166666667
0.2 -0.1 0.166666667
0.333333333 0 0.5
0.166666667 0 0.5
0.291666667 -0.125 0.5
0.2 -0.1 0.5
0.4 -0.1 -0.166666667
0.291666667 -0.125 -0.166666667
0.341506351 -0.25 -0.166666667
0.25 -0.25 -0.166666667
0.4 -0.1 0.166666667
0.291666667 -0.125 0.166666667
0.341506351 -0.25 0.166666667
0.25 -0.25 0.166666667
0.5 0 -0.166666667
0.333333333 0 -0.166666667
0.4 -0.1 -0.166666667
0.291666667 -0.125 -0.166666667
0.5 0 0.166666667
0.333333333 0 0.166666667
0.4 -0.1 0.166666667
0.291666667 -0.125 0.166666667
0.433012702 -0.25 -0.166666667
0.5 0 -0.166666667
0.341506351 -0.25 -0.166666667
0.4 -0.1 -0.166666667
0.433012702 -0.25 0.166666667
0.5 0 0.166666667
0.341506351 -0.25 0.166666667
0.4 -0.1 0.166666667
0.25 -0.359807621 -0.166666667
0.341506351 -0.25 -0.166666667
0.125 -0.375 -0.166666667
0.25 -0.25 -0.166666667
0.25 -0.359807621 0.166666667
0.341506351 -0.25 0.166666667
0.125 -0.375 0.166666667
0.25 -0.25 0.166666667
0.25 -0.433012702 -0.166666667
0.433012702 -0.25 -0.166666667
0.25 -0.359807621 -0.166666667
0.341506351 -0.25 -0.166666667
0.25 -0.433012702 0.166666667
0.433012702 -0.25 0.166666667
0.25 -0.359807621 0.166666667
0.341506351 -0.25 0.166666667
0 -0.5 -0.166666667
0.25 -0.433012702 -0.166666667
0.125 -0.375 -0.166666667
0.25 -0.359807621 -0.166666667
0 -0.5 0.166666667
0.25 -0.433012702 0.166666667
0.125 -0.375 0.166666667
0.25 -0.359807621 0.166666667
0.1 -0.25 -0.166666667
0.125 -0.375 -0.166666667
0.125 -0.125 -0.166666667
0.25 -0.25 -0.166666667
0.1 -0.25 0.166666667
0.125 -0.375 0.166666667
0.125 -0.125 0.166666667
0.25 -0.25 0.166666667
0.2 -0.1 -0.166666667
0.125 -0.125 -0.166666667
0.291666667 -0.125 -0.166666667
0.25 -0.25 -0.166666667
0.2 -0.1 0.166666667
0.125 -0.125 0.166666667
0.291666667 -0.125 0.166666667
0.25 -0.25 0.166666667
0.166666667 0 -0.166666667
0 0 -0.166666667
0.2 -0.1 -0.166666667
0.125 -0.125 -0.166666667
0.166666667 0 0.166666667
0 0 0.166666667
0.2 -0.1 0.166666667
0.125 -0.125 0.166666667
0.333333333 0 -0.166666667
0.166666667 0 -0.166666667
0.291666667 -0.125 -0.166666667
0.2 -0.1 -0.166666667
0.333333333 0 0.166666667
0.166666667 0 0.166666667
0.291666667 -0.125 0.166666667
0.2 -0.1 0.166666667
0.4 -0.1 -0.5
0.291666667 -0.125 -0.5
0.341506351 -0.25 -0.5
0.25 -0.25 -0.5
0.4 -0.1 -0.166666667
0.291666667 -0.125 -0.166666667
0.341506351 -0.25 -0.166666667
0.25 -0.25 -0.166666667
0.5 0 -0.5
0.333333333 0 -0.5
0.4 -0.1 -0.5
0.291666667 -0.125 -0.5
0.5 0 -0.166666667
0.333333333 0 -0.166666667
0.4 -0.1 -0.166666667
0.291666667 -0.125 -0.166666667
0.433012702 -0.25 -0.5
0.5 0 -0.5
0.341506351 -0.25 -0.5
0.4 -0.1 -0.5
0.433012702 -0.25 -0.166666667
0.5 0 -0.166666667
0.341506351 -0.25 -0.166666667
0.4 -0.1 -0.166666667
0.25 -0.359807621 -0.5
0.341506351 -0.25 -0.5
0.125 -0.375 -0.5
0.25 -0.25 -0.5
0.25 -0.359807621 -0.166666667
0.341506351 -0.25 -0.166666667
0.125 -0.375 -0.166666667
0.25 -0.25 -0.166666667
0.25 -0.433012702 -0.5
0.433012702 -0.25 -0.5
0.25 -0.359807621 -0.5
0.341506351 -0.25 -0.5
0.25 -0.433012702 -0.166666667
0.433012702 -0.25 -0.166666667
0.25 -0.359807621 -0.166666667
0.341506351 -0.25 -0.166666667
0 -0.5 -0.5
0.25 -0.433012702 -0.5
0.125 -0.375 -0.5
0.25 -0.359807621 -0.5
0 -0.5 -0.166666667
0.25 -0.433012702 -0.166666667
0.125 -0.375 -0.166666667
0.25 -0.359807621 -0.166666667
0.1 -0.25 -0.5
0.125 -0.375 -0.5
0.125 -0.125 -0.5
0.25 -0.25 -0.5
0.1 -0.25 -0.166666667
0.125 -0.375 -0.166666667
0.125 -0.125 -0.166666667
0.25 -0.25 -0.166666667
0.2 -0.1 -0.5
0.125 -0.125 -0.5
0.291666667 -0.125 -0.5
0.25 -0.25 -0.5
0.2 -0.1 -0.166666667
0.125 -0.125 -0.166666667
0.291666667 -0.125 -0.166666667
0.25 -0.25 -0.166666667
0.166666667 0 -0.5
0 0 -0.5
0.2 -0.1 -0.5
0.125 -0.125 -0.5
0.166666667 0 -0.166666667
0 0 -0.166666667
0.2 -0.1 -0.166666667
0.125 -0.125 -0.166666667
0.333333333 0 -0.5
0.166666667 0 -0.5
0.291666667 -0.125 -0.5
0.2 -0.1 -0.5
0.333333333 0 -0.166666667
0.166666667 0 -0.166666667
0.291666667 -0.125 -0.166666667
0.2 -0.1 -0.166666667
0.577350269 -0.333333333 0.166666667
0.433012702 -0.25 0.166666667
0.577350269 -0.333333333 0.5
0.433012702 -0.25 0.5
0.666666667 0 0.166666667
0.5 0 0.166666667
0.666666667 0 0.5
0.5 0 0.5
0.577350269 -0.333333333 -0.166666667
0.433012702 -0.25 -0.166666667
0.577350269 -0.333333333 0.166666667
0.433012702 -0.25 0.166666667
0.666666667 0 -0.166666667
0.5 0 -0.166666667
0.666666667 0 0.166666667
0.5 0 0.166666667
0.577350269 -0.333333333 -0.5
0.433012702 -0.25 -0.5
0.577350269 -0.333333333 -0.166666667
0.433012702 -0.25 -0.166666667
0.666666667 0 -0.5
0.5 0 -0.5
0.666666667 0 -0.166666667
0.5 0 -0.166666667
0.333333333 -0.577350269 0.166666667
0.25 -0.433012702 0.166666667
0.333333333 -0.577350269 0.5
0.25 -0.433012702 0.5
0.577350269 -0.333333333 0.166666667
0.433012702 -0.25 0.166666667
0.577350269 -0.333333333 0.5
0.433012702 -0.25 0.5
0.333333333 -0.577350269 -0.166666667
0.25 -0.433012702 -0.166666667
0.333333333 -0.577350269 0.166666667
0.25 -0.433012702 0.166666667
0.577350269 -0.333333333 -0.166666667
0.433012702 -0.25 -0.166666667
0.577350269 -0.333333333 0.166666667
0.433012702 -0.25 0.166666667
0.333333333 -0.577350269 -0.5
0.25 -0.433012702 -0.5
0.333333333 -0.577350269 -0.166666667
0.25 -0.433012702 -0.166666667
0.577350269 -0.333333333 -0.5
0.433012702 -0.25 -0.5
0.577350269 -0.333333333 -0.166666667
0.433012702 -0.25 -0.166666667
0 -0.666666667 0.166666667
0 -0.5 0.166666667
0 -0.666666667 0.5
0 -0.5 0.5
0.333333333 -0.577350269 0.166666667
0.25 -0.433012702 0.166666667
0.333333333 -0.577350269 0.5
0.25 -0.433012702 0.5
0 -0.666666667 -0.166666667
0 -0.5 -0.166666667
0 -0.666666667 0.166666667
0 -0.5 0.166666667
0.333333333 -0.577350269 -0.166666667
0.25 -0.433012702 -0.166666667
0.333333333 -0.577350269 0.166666667
0.25 -0.433012702 0.166666667
0 -0.666666667 -0.5
0 -0.5 -0.5
0 -0.666666667 -0.166666667
0 -0.5 -0.166666667
0.333333333 -0.577350269 -0.5
0.25 -0.433012702 -0.5
0.333333333 -0.577350269 -0.166666667
0.25 -0.433012702 -0.166666667
</DataArray>
</Points>
<Cells>
<DataArray type="Int32" Name="connectivity" format="ascii">
0 1 3 2 4 5 7 6 
8 9 11 10 12 13 15 14 
16 17 19 18 20 21 23 22 
24 25 27 26 28 29 31 30 
32 33 35 34 36 37 39 38 
40 41 43 42 44 45 47 46 
48 49 51 50 52 53 55 54 
56 57 59 58 60 61 63 62 
64 65 67 66 68 69 71 70 
72 73 75 74 76 77 79 78 
80 81 83 82 84 85 87 86 
88 89 91 90 92 93 95 94 
96 97 99 98 100 101 103 102 
104 105 107 106 108 109 111 110 
112 113 115 114 116 117 119 118 
120 121 123 122 124 125 127 126 
128 129 131 130 132 133 135 134 
136 137 139 138 140 141 143 142 
144 145 147 146 148 149 151 150 
152 153 155 154 156 157 159 158 
160 161 163 162 164 165 167 166 
168 169 171 170 172 173 175 174 
176 177 179 178 180 181 183 182 
184 185 187 186 188 189 191 190 
192 193 195 194 196 197 199 198 
200 201 203 202 204 205 207 206 
208 209 211 210 212 213 215 214 
216 217 219 218 220 221 223 222 
224 225 227 226 228 229 231 230 
232 233 235 234 236 237 239 238 
240 241 243 242 244 245 247 246 
248 249 251 250 252 253 255 254 
256 257 259 258 260 261 263 262 
264 265 267 266 268 269 271 270 
272 273 275 274 276 277 279 278 
280 281 283 282 284 285 287 286 
288 289 291 290 292 293 295 294 
296 297 299 298 300 301 303 302 
304 305 307 306 308 309 311 310 
312 313 315 314 316 317 319 318 
320 321 323 322 324 325 327 326 
328 329 331 330 332 333 335 334 
336 337 339 338 340 341 343 342 
344 345 347 346 348 349 351 350 
352 353 355 354 356 357 359 358 
360 361 363 362 364 365 367 366 
368 369 371 370 372 373 375 374 
376 377 379 378 380 381 383 382 
384 385 387 386 388 389 391 390 
392 393 395 394 396 397 399 398 
400 401 403 402 404 405 407 406 
</DataArray>
<DataArray type="Int32" Name="offsets" format="ascii">
8
16
24
32
40
48
56
64
72
80
88
96
104
112
120
128
136
144
152
160
168
176
184
192
200
208
216
224
232
240
248
256
264
272
280
288
296
304
312
320
328
336
344
352
360
368
376
384
392
400
408
</DataArray>
<DataArray type="UInt8" Name="types" format="ascii">
12
12
12
12
12
12
12
12
12
12
12
12
12
12
12
12
12
12
12
12
12
12
12
12
12
12
12
12
12
12
12
12
12
12
12
12
12
12
12
12
12
12
12
12
12
12
12
12
12
12
12
</DataArray>
</Cells>
<CellData Scalars="attribute">
<DataArray type="Int32" Name="attribute" format="ascii">
1
1
1
1
1
1
1
1
1
1
1
1
1
1
1
1
1
1
1
1
1
1
1
1
1
1
1
1
1
1
1
1
1
1
1
1
1
1
1
1
1
1
2
2
2
2
2
2
2
2
2
</DataArray>
</CellData>
<PointData >
<DataArray type="Float64" Name="a_field" NumberOfComponents="3" ComponentName0="0" ComponentName1="1" ComponentName2="2" format="ascii" >
-5.52435748e-05 -0.000665820682 0.15100906 
-5.52435748e-05 0.00156612602 0.140808873 
0.00329267647 -0.00401374073 0.142200853 
0.00217670312 0.000822143783 0.132327459 
0 0 0.15100906 
0 0 0.140808873 
0 0 0.142200853 
0 0 0.132327459 
-0.00168136259 -0.0186103967 0.120747505 
-0.00619255024 -0.00507683381 0.109605118 
0.00282982505 -0.00206937538 0.132327459 
-0.00168136259 -0.00056564616 0.116521294 
0 0 0.120747505 
0 0 0.109605118 
0 0 0.132327459 
0 0 0.116521294 
-0.00262884606 0.00366755584 0.119844888 
-0.00262884606 -0.0002195446 0.0870345448 
-0.00845949672 0.00172400562 0.120747505 
-0.0065159465 -0.00410664504 0.109605118 
0 0 0.119844888 
0 0 0.0870345448 
0 0 0.120747505 
0 0 0.109605118 
0.000301290989 0.00144728116 0.140808873 
0.000301290989 0.00464426819 0.119844888 
0.00349827802 0.000381618819 0.132327459 
0.00509677153 0.0062427617 0.120747505 
0 0 0.140808873 
0 0 0.119844888 
0 0 0.132327459 
0 0 0.120747505 
-0.00304155768 0.00422610783 0.151000511 
-0.00304155768 0.00536607195 0.142265859 
-0.0013316115 0.00251616165 0.1414043 
-0.00190159356 0.00498608391 0.133313146 
-5.52435748e-05 -0.000665820682 0.151000511 
-5.52435748e-05 0.00156612602 0.142265859 
0.00329267647 -0.00401374073 0.1414043 
0.00217670312 0.000822143783 0.133313146 
0.00480856699 0.00877859156 0.122936041 
0.00826638002 -0.00159484753 0.106505159 
0.00135075396 -0.00390005622 0.133313146 
0.00480856699 -0.00505266056 0.117956083 
-0.00168136259 -0.0186103967 0.122936041 
-0.00619255024 -0.00507683381 0.106505159 
0.00282982505 -0.00206937538 0.133313146 
-0.00168136259 -0.00056564616 0.117956083 
0.00556812187 -0.00183703475 0.118199199 
0.00556812187 -0.000169642416 0.0799759484 
0.00806921037 -0.00100333858 0.122936041 
0.0072355142 0.00149774992 0.106505159 
-0.00262884606 0.00366755584 0.118199199 
-0.00262884606 -0.0002195446 0.0799759484 
-0.00845949672 0.00172400562 0.122936041 
-0.0065159465 -0.00410664504 0.106505159 
0.00680793288 0.00208290843 0.142265859 
0.00680793288 -0.00142376442 0.118199199 
0.00330126003 0.00325179938 0.133313146 
0.00154792361 -0.00317710084 0.122936041 
0.000301290989 0.00144728116 0.142265859 
0.000301290989 0.00464426819 0.118199199 
0.00349827802 0.000381618819 0.133313146 
0.00509677153 0.0062427617 0.122936041 
0 0 0.151582674 
0 0 0.139834087 
0 0 0.142913513 
0 0 0.133565146 
-0.00304155768 0.00422610783 0.151582674 
-0.00304155768 0.00536607195 0.139834087 
-0.0013316115 0.00251616165 0.142913513 
-0.00190159356 0.00498608391 0.133565146 
0 0 0.123582558 
0 0 0.112406408 
0 0 0.133565146 
0 0 0.116043016 
0.00480856699 0.00877859156 0.123582558 
0.00826638002 -0.00159484753 0.112406408 
0.00135075396 -0.00390005622 0.133565146 
0.00480856699 -0.00505266056 0.116043016 
0 0 0.122424713 
0 0 0.0910840077 
0 0 0.123582558 
0 0 0.112406408 
0.00556812187 -0.00183703475 0.122424713 
0.00556812187 -0.000169642416 0.0910840077 
0.00806921037 -0.00100333858 0.123582558 
0.0072355142 0.00149774992 0.112406408 
0 0 0.139834087 
0 0 0.122424713 
0 0 0.133565146 
0 0 0.123582558 
0.00680793288 0.00208290843 0.139834087 
0.00680793288 -0.00142376442 0.122424713 
0.00330126003 0.00325179938 0.133565146 
0.00154792361 -0.00317710084 0.123582558 
-0.00532817734 0.00160466587 0.106161647 
-0.00606060635 0.00477852491 0.122147966 
-0.00132611081 4.40293697e-05 0.104858876 
-0.00132611081 0.00320035973 0.117363714 
0 0 0.106161647 
0 0 0.122147966 
0 0 0.104858876 
0 0 0.117363714 
-0.00262884606 0.00285863859 0.0870345448 
-0.00262884606 0.000268423605 0.119844888 
-0.00651416855 0.00674396108 0.106161647 
-0.00521906105 0.0011318286 0.122147966 
0 0 0.0870345448 
0 0 0.119844888 
0 0 0.106161647 
0 0 0.122147966 
-0.00106303873 0.000819735632 0.0856829217 
4.58269942e-05 0.00018396554 0.0870345448 
-0.00106303873 -5.85576056e-05 0.104858876 
0.0011521991 -0.000922406566 0.106161647 
0 0 0.0856829217 
0 0 0.0870345448 
0 0 0.104858876 
0 0 0.106161647 
0.00132446794 -0.00336066755 0.0997887111 
-0.00132611081 -0.00115185192 0.104858876 
0.00105601063 -0.00115185192 0.109808905 
-0.00132611081 0.00123026952 0.117363714 
0 0 0.0997887111 
0 0 0.104858876 
0 0 0.109808905 
0 0 0.117363714 
-0.00248341035 0.00371736663 0.0853771538 
-0.00106303873 0.000304278106 0.0856829217 
-0.00716917308 0.00371736663 0.0997887111 
-0.00106303873 -0.00137107866 0.104858876 
0 0 0.0853771538 
0 0 0.0856829217 
0 0 0.0997887111 
0 0 0.104858876 
0.000292986416 0.00161031072 0.0878278228 
-0.00177926181 0.00371736663 0.0853771538 
0.000779420829 0.0011238763 0.109808905 
0.000464210527 0.00371736663 0.0997887111 
0 0 0.0878278228 
0 0 0.0853771538 
0 0 0.109808905 
0 0 0.0997887111 
0.00479018289 0.000732462644 0.129713202 
0.000108110537 -0.000203951826 0.109808905 
0.000108110537 0.00166887711 0.140081814 
-0.000828303934 0.000732462644 0.117363714 
0 0 0.129713202 
0 0 0.109808905 
0 0 0.140081814 
0 0 0.117363714 
0.000898167159 0.0118307233 0.133696498 
0.00324111455 0.00480188113 0.140081814 
-0.00144478024 0.0032399162 0.122147966 
0.000898167159 0.00245893374 0.117363714 
0 0 0.133696498 
0 0 0.140081814 
0 0 0.122147966 
0 0 0.117363714 
-5.52435748e-05 -0.00341475013 0.140808873 
-5.52435748e-05 0.000206391003 0.15100906 
0.00537646812 -0.00160417956 0.133696498 
0.00356589755 0.00382753213 0.140081814 
0 0 0.140808873 
0 0 0.15100906 
0 0 0.133696498 
0 0 0.140081814 
0.000301290989 -0.000708288745 0.119844888 
0.000301290989 -0.00329590527 0.140808873 
-0.00228632554 0.000154250097 0.122147966 
-0.0035801338 -0.00458971354 0.133696498 
0 0 0.119844888 
0 0 0.140808873 
0 0 0.122147966 
0 0 0.133696498 
0.00839128804 0.00418689942 0.102160435 
0.010029427 -0.00291170256 0.124410555 
-0.000559669467 0.00767739386 0.104640067 
-0.000559669467 0.000617996248 0.117719351 
-0.00532817734 0.00160466587 0.102160435 
-0.00606060635 0.00477852491 0.124410555 
-0.00132611081 4.40293697e-05 0.104640067 
-0.00132611081 0.00320035973 0.117719351 
0.00556812187 0.00508274416 0.0799759484 
0.00556812187 0.00735031923 0.118199199 
0.00896948447 0.00168138157 0.102160435 
0.00783569693 0.00659446088 0.124410555 
-0.00262884606 0.00285863859 0.0799759484 
-0.00262884606 0.000268423605 0.118199199 
-0.00651416855 0.00674396108 0.102160435 
-0.00521906105 0.0011318286 0.124410555 
0.0120053075 -0.00219085295 0.081584779 
0.00662413822 0.00402672781 0.0799759484 
0.0120053075 0.00277758485 0.104640067 
0.00523196401 0.00541890202 0.102160435 
-0.00106303873 0.000819735632 0.081584779 
4.58269942e-05 0.00018396554 0.0799759484 
-0.00106303873 -5.85576056e-05 0.104640067 
0.0011521991 -0.000922406566 0.102160435 
-0.00272379452 -0.00158311129 0.0997876344 
-0.000559669467 -0.00338654884 0.104640067 
-0.00250460647 -0.00338654884 0.10802724 
-0.000559669467 -0.00533148583 0.117719351 
0.00132446794 -0.00336066755 0.0997876344 
-0.00132611081 -0.00115185192 0.104640067 
0.00105601063 -0.00115185192 0.10802724 
-0.00132611081 0.00123026952 0.117719351 
0.00301729281 -0.000358993647 0.0836644558 
0.0120053075 -0.00419293664 0.081584779 
-0.00419273569 -0.000358993647 0.0997876344 
0.0120053075 -0.013857363 0.104640067 
-0.00248341035 0.00371736663 0.0836644558 
-0.00106303873 0.000304278106 0.081584779 
-0.00716917308 0.00371736663 0.0997876344 
-0.00106303873 -0.00137107866 0.104640067 
-0.00434953233 -0.00227847217 0.0821331832 
-0.00481605064 -0.000358993647 0.0836644558 
-0.00240266006 -0.00422534443 0.10802724 
-0.00287257259 -0.000358993647 0.0997876344 
0.000292986416 0.00161031072 0.0821331832 
-0.00177926181 0.00371736663 0.0836644558 
0.000779420829 0.0011238763 0.10802724 
0.000464210527 0.00371736663 0.0997876344 
-0.00978279182 -0.00321000965 0.128232401 
-0.00386475335 -0.00202640195 0.10802724 
-0.00386475335 -0.00439361734 0.14180635 
-0.00268114565 -0.00321000965 0.117719351 
0.00479018289 0.000732462644 0.128232401 
0.000108110537 -0.000203951826 0.10802724 
0.000108110537 0.00166887711 0.14180635 
-0.000828303934 0.000732462644 0.117719351 
0.000720227814 -0.0182635855 0.138807536 
-0.00389350953 -0.00442237352 0.14180635 
0.00533396515 -0.00134654863 0.124410555 
0.000720227814 0.000191363821 0.117719351 
0.000898167159 0.0118307233 0.138807536 
0.00324111455 0.00480188113 0.14180635 
-0.00144478024 0.0032399162 0.124410555 
0.000898167159 0.00245893374 0.117719351 
-0.00304155768 0.00437364767 0.142265859 
-0.00304155768 0.00210327233 0.151000511 
-0.0064471207 0.00323846 0.138807536 
-0.00531193303 -0.000167103019 0.14180635 
-5.52435748e-05 -0.00341475013 0.142265859 
-5.52435748e-05 0.000206391003 0.151000511 
0.00537646812 -0.00160417956 0.138807536 
0.00356589755 0.00382753213 0.14180635 
0.00680793288 0.00693704889 0.118199199 
0.00680793288 0.00765681119 0.142265859 
0.00752769518 0.00669712813 0.124410555 
0.00788757633 0.00801669234 0.138807536 
0.000301290989 -0.000708288745 0.118199199 
0.000301290989 -0.00329590527 0.142265859 
-0.00228632554 0.000154250097 0.124410555 
-0.0035801338 -0.00458971354 0.138807536 
0 0 0.106946913 
0 0 0.121503353 
0 0 0.102500419 
0 0 0.11552294 
0.00839128804 0.00418689942 0.106946913 
0.010029427 -0.00291170256 0.121503353 
-0.000559669467 0.00767739386 0.102500419 
-0.000559669467 0.000617996248 0.11552294 
0 0 0.0910840077 
0 0 0.122424713 
0 0 0.106946913 
0 0 0.121503353 
0.00556812187 0.00508274416 0.0910840077 
0.00556812187 0.00735031923 0.122424713 
0.00896948447 0.00168138157 0.106946913 
0.00783569693 0.00659446088 0.121503353 
0 0 0.0863283264 
0 0 0.0910840077 
0 0 0.102500419 
0 0 0.106946913 
0.0120053075 -0.00219085295 0.0863283264 
0.00662413822 0.00402672781 0.0910840077 
0.0120053075 0.00277758485 0.102500419 
0.00523196401 0.00541890202 0.106946913 
0 0 0.0994429901 
0 0 0.102500419 
0 0 0.110213255 
0 0 0.11552294 
-0.00272379452 -0.00158311129 0.0994429901 
-0.000559669467 -0.00338654884 0.102500419 
-0.00250460647 -0.00338654884 0.110213255 
-0.000559669467 -0.00533148583 0.11552294 
0 0 0.0842938829 
0 0 0.0863283264 
0 0 0.0994429901 
0 0 0.102500419 
0.00301729281 -0.000358993647 0.0842938829 
0.0120053075 -0.00419293664 0.0863283264 
-0.00419273569 -0.000358993647 0.0994429901 
0.0120053075 -0.013857363 0.102500419 
0 0 0.0900039378 
0 0 0.0842938829 
0 0 0.110213255 
0 0 0.0994429901 
-0.00434953233 -0.00227847217 0.0900039378 
-0.00481605064 -0.000358993647 0.0842938829 
-0.00240266006 -0.00422534443 0.110213255 
-0.00287257259 -0.000358993647 0.0994429901 
0 0 0.129562918 
0 0 0.110213255 
0 0 0.138628003 
0 0 0.11552294 
-0.00978279182 -0.00321000965 0.129562918 
-0.00386475335 -0.00202640195 0.110213255 
-0.00386475335 -0.00439361734 0.138628003 
-0.00268114565 -0.00321000965 0.11552294 
0 0 0.132124362 
0 0 0.138628003 
0 0 0.121503353 
0 0 0.11552294 
0.000720227814 -0.0182635855 0.132124362 
-0.00389350953 -0.00442237352 0.138628003 
0.00533396515 -0.00134654863 0.121503353 
0.000720227814 0.000191363821 0.11552294 
0 0 0.139834087 
0 0 0.151582674 
0 0 0.132124362 
0 0 0.138628003 
-0.00304155768 0.00437364767 0.139834087 
-0.00304155768 0.00210327233 0.151582674 
-0.0064471207 0.00323846 0.132124362 
-0.00531193303 -0.000167103019 0.138628003 
0 0 0.122424713 
0 0 0.139834087 
0 0 0.121503353 
0 0 0.132124362 
0.00680793288 0.00693704889 0.122424713 
0.00680793288 0.00765681119 0.139834087 
0.00752769518 0.00669712813 0.121503353 
0.00788757633 0.00801669234 0.132124362 
0.00430504396 -0.00274268482 0.0509430381 
0.00451954392 -0.00237115999 0.0856829217 
0 0 0.0509430381 
0 0 0.0856829217 
0.00162557994 -0.0020247246 0.0529258459 
0.00162557994 0.000177112363 0.0870345448 
0 0 0.0529258459 
0 0 0.0870345448 
-0.00163984639 -0.000711844847 0.0524766284 
0.00110377679 0.0040402499 0.081584779 
0.00430504396 -0.00274268482 0.0524766284 
0.00451954392 -0.00237115999 0.081584779 
-0.00987908709 0.00149585305 0.0524323729 
-0.00987908709 0.00409832098 0.0799759484 
0.00162557994 -0.0020247246 0.0524323729 
0.00162557994 0.000177112363 0.0799759484 
0 0 0.0536061396 
0 0 0.0863283264 
-0.00163984639 -0.000711844847 0.0536061396 
0.00110377679 0.0040402499 0.0863283264 
0 0 0.0528485552 
0 0 0.0910840077 
-0.00987908709 0.00149585305 0.0528485552 
-0.00987908709 0.00409832098 0.0910840077 
0.00543659289 -0.0100593319 0.0476178626 
0.00552177724 -0.0100101507 0.0853771538 
0 0 0.0476178626 
0 0 0.0853771538 
0.0020411409 -0.00666387994 0.0509430381 
0.00426900864 -0.00280509982 0.0856829217 
0 0 0.0509430381 
0 0 0.0856829217 
0.00227673347 -0.00274340433 0.0555779858 
0.00387099989 -0.00182295418 0.0836644558 
0.00543659289 -0.0100593319 0.0555779858 
0.00552177724 -0.0100101507 0.0836644558 
-0.000949881041 0.00048321019 0.0524766284 
0.000293492435 0.00263679622 0.081584779 
0.0020411409 -0.00666387994 0.0524766284 
0.00426900864 -0.00280509982 0.081584779 
0 0 0.0540066707 
0 0 0.0842938829 
0.00227673347 -0.00274340433 0.0540066707 
0.00387099989 -0.00182295418 0.0842938829 
0 0 0.0536061396 
0 0 0.0863283264 
-0.000949881041 0.00048321019 0.0536061396 
0.000293492435 0.00263679622 0.0863283264 
0.00341831375 -0.0109351263 0.0486636344 
0.000347410176 -0.0109351263 0.0878278228 
0 0 0.0486636344 
0 0 0.0878278228 
0.00348548308 -0.0111858057 0.0476178626 
0.00593180874 -0.00977341892 0.0853771538 
0 0 0.0476178626 
0 0 0.0853771538 
-0.00140436005 0.00145987638 0.0546340592 
-0.00436574978 0.00145987638 0.0821331832 
0.00341831375 -0.0109351263 0.0546340592 
0.000347410176 -0.0109351263 0.0821331832 
6.41876501e-05 -0.00402081825 0.0555779858 
-0.00203145597 -0.00523073866 0.0836644558 
0.00348548308 -0.0111858057 0.0555779858 
0.00593180874 -0.00977341892 0.0836644558 
0 0 0.0555773743 
0 0 0.0900039378 
-0.00140436005 0.00145987638 0.0555773743 
-0.00436574978 0.00145987638 0.0900039378 
0 0 0.0540066707 
0 0 0.0842938829 
6.41876501e-05 -0.00402081825 0.0540066707 
-0.00203145597 -0.00523073866 0.0842938829 
</DataArray>
<DataArray type="Float64" Name="b_field" NumberOfComponents="3" ComponentName0="0" ComponentName1="1" ComponentName2="2" format="ascii" >
-0.0288784126 0.0613668513 -1.99062707e-16 
-0.0427525668 0.0613668513 -1.11157828e-16 
-0.0080671813 0.0821780826 -2.77894569e-16 
-0.0381278487 0.0752410055 -2.6612552e-16 
-0.0288784126 0.0613668513 0 
-0.0427525668 0.0613668513 0 
-0.0080671813 0.0821780826 0 
-0.0381278487 0.0752410055 0 
-0.0925245212 0.14137813 -1.95156391e-15 
-0.0851573132 0.143833866 -6.50521303e-16 
-0.0835201559 0.138922394 -6.50521303e-16 
-0.0827015772 0.14137813 -3.90312782e-16 
-0.0925245212 0.14137813 0 
-0.0851573132 0.143833866 0 
-0.0835201559 0.138922394 0 
-0.0827015772 0.14137813 0 
-0.0455918553 0.204748599 -5.07406617e-16 
-0.0169561073 0.204748599 -4.05925293e-16 
-0.0312739813 0.161794977 -1.01481323e-15 
0.0116796407 0.176112851 -6.76542156e-16 
-0.0455918553 0.204748599 0 
-0.0169561073 0.204748599 0 
-0.0312739813 0.161794977 0 
0.0116796407 0.176112851 0 
-0.0215815045 0.124880038 1.8474805e-16 
-0.0189690016 0.124880038 2.15842017e-16 
-0.0224523388 0.122267535 2.13353067e-16 
-0.0176627502 0.120961284 4.61870125e-16 
-0.0215815045 0.124880038 0 
-0.0189690016 0.124880038 0 
-0.0224523388 0.122267535 0 
-0.0176627502 0.120961284 0 
-0.0288784126 0.0613668513 -8.03219964e-16 
-0.0427525668 0.0613668513 -6.42575971e-16 
-0.0080671813 0.0821780826 -1.47017815e-15 
-0.0381278487 0.0752410055 -9.80118764e-16 
-0.0288784126 0.0613668513 -1.99062707e-16 
-0.0427525668 0.0613668513 -1.11157828e-16 
-0.0080671813 0.0821780826 -2.77894569e-16 
-0.0381278487 0.0752410055 -2.6612552e-16 
-0.0925245212 0.14137813 -5.72458747e-15 
-0.0851573132 0.143833866 -1.90819582e-15 
-0.0835201559 0.138922394 -1.90819582e-15 
-0.0827015772 0.14137813 -1.14491749e-15 
-0.0925245212 0.14137813 -1.95156391e-15 
-0.0851573132 0.143833866 -6.50521303e-16 
-0.0835201559 0.138922394 -6.50521303e-16 
-0.0827015772 0.14137813 -3.90312782e-16 
-0.0455918553 0.204748599 -8.06646416e-16 
-0.0169561073 0.204748599 -7.02075491e-16 
-0.0312739813 0.161794977 -1.61329283e-15 
0.0116796407 0.176112851 -1.07552856e-15 
-0.0455918553 0.204748599 -5.07406617e-16 
-0.0169561073 0.204748599 -4.05925293e-16 
-0.0312739813 0.161794977 -1.01481323e-15 
0.0116796407 0.176112851 -6.76542156e-16 
-0.0215815045 0.124880038 6.6497785e-17 
-0.0189690016 0.124880038 1.69135539e-16 
-0.0224523388 0.122267535 2.25514052e-16 
-0.0176627502 0.120961284 3.38271078e-16 
-0.0215815045 0.124880038 1.8474805e-16 
-0.0189690016 0.124880038 2.15842017e-16 
-0.0224523388 0.122267535 2.13353067e-16 
-0.0176627502 0.120961284 4.61870125e-16 
-0.0288784126 0.0613668513 0 
-0.0427525668 0.0613668513 0 
-0.0080671813 0.0821780826 0 
-0.0381278487 0.0752410055 0 
-0.0288784126 0.0613668513 -8.03219964e-16 
-0.0427525668 0.0613668513 -6.42575971e-16 
-0.0080671813 0.0821780826 -1.47017815e-15 
-0.0381278487 0.0752410055 -9.80118764e-16 
-0.0925245212 0.14137813 0 
-0.0851573132 0.143833866 0 
-0.0835201559 0.138922394 0 
-0.0827015772 0.14137813 0 
-0.0925245212 0.14137813 -5.72458747e-15 
-0.0851573132 0.143833866 -1.90819582e-15 
-0.0835201559 0.138922394 -1.90819582e-15 
-0.0827015772 0.14137813 -1.14491749e-15 
-0.0455918553 0.204748599 0 
-0.0169561073 0.204748599 0 
-0.0312739813 0.161794977 0 
0.0116796407 0.176112851 0 
-0.0455918553 0.204748599 -8.06646416e-16 
-0.0169561073 0.204748599 -7.02075491e-16 
-0.0312739813 0.161794977 -1.61329283e-15 
0.0116796407 0.176112851 -1.07552856e-15 
-0.0215815045 0.124880038 0 
-0.0189690016 0.124880038 0 
-0.0224523388 0.122267535 0 
-0.0176627502 0.120961284 0 
-0.0215815045 0.124880038 6.6497785e-17 
-0.0189690016 0.124880038 1.69135539e-16 