<VTKFile type="UnstructuredGrid" version="2.2" byte_order="LittleEndian">
<UnstructuredGrid>
<Piece NumberOfPoints="408" NumberOfCells="51">
<Points>
<DataArray type="Float64" NumberOfComponents="3" format="ascii">
-0.4 0.1 0.166666667
-0.291666667 0.125 0.166666667
-0.341506351 0.25 0.166666667
-0.25 0.25 0.166666667
-0.4 0.1 0.5
-0.291666667 0.125 0.5
-0.341506351 0.25 0.5
-0.25 0.25 0.5
-0.5 0 0.166666667
-0.333333333 0 0.166666667
-0.4 0.1 0.166666667
-0.291666667 0.125 0.166666667
-0.5 0 0.5
-0.333333333 0 0.5
-0.4 0.1 0.5
-0.291666667 0.125 0.5
-0.433012702 0.25 0.166666667
-0.5 0 0.166666667
-0.341506351 0.25 0.166666667
-0.4 0.1 0.166666667
-0.433012702 0.25 0.5
-0.5 0 0.5
-0.341506351 0.25 0.5
-0.4 0.1 0.5
-0.2 0.1 0.166666667
-0.125 0.125 0.166666667
-0.291666667 0.125 0.166666667
-0.25 0.25 0.166666667
-0.2 0.1 0.5
-0.125 0.125 0.5
-0.291666667 0.125 0.5
-0.25 0.25 0.5
-0.166666667 0 0.166666667
0 0 0.166666667
-0.2 0.1 0.166666667
-0.125 0.125 0.166666667
-0.166666667 0 0.5
0 0 0.5
-0.2 0.1 0.5
-0.125 0.125 0.5
-0.333333333 0 0.166666667
-0.166666667 0 0.166666667
-0.291666667 0.125 0.166666667
-0.2 0.1 0.166666667
-0.333333333 0 0.5
-0.166666667 0 0.5
-0.291666667 0.125 0.5
-0.2 0.1 0.5
-0.4 0.1 -0.166666667
-0.291666667 0.125 -0.166666667
-0.341506351 0.25 -0.166666667
-0.25 0.25 -0.166666667
-0.4 0.1 0.166666667
-0.291666667 0.125 0.166666667
-0.341506351 0.25 0.166666667
-0.25 0.25 0.166666667
-0.5 0 -0.166666667
-0.333333333 0 -0.166666667
-0.4 0.1 -0.166666667
-0.291666667 0.125 -0.166666667
-0.5 0 0.166666667
-0.333333333 0 0.166666667
-0.4 0.1 0.166666667
-0.291666667 0.125 0.166666667
-0.433012702 0.25 -0.166666667
-0.5 0 -0.166666667
-0.341506351 0.25 -0.166666667
-0.4 0.1 -0.166666667
-0.433012702 0.25 0.166666667
-0.5 0 0.166666667
-0.341506351 0.25 0.166666667
-0.4 0.1 0.166666667
-0.2 0.1 -0.166666667
-0.125 0.125 -0.166666667
-0.291666667 0.125 -0.166666667
-0.25 0.25 -0.166666667
-0.2 0.1 0.166666667
-0.125 0.125 0.166666667
-0.291666667 0.125 0.166666667
-0.25 0.25 0.166666667
-0.166666667 0 -0.166666667
0 0 -0.166666667
-0.2 0.1 -0.166666667
-0.125 0.125 -0.166666667
-0.166666667 0 0.166666667
0 0 0.166666667
-0.2 0.1 0.166666667
-0.125 0.125 0.166666667
-0.333333333 0 -0.166666667
-0.166666667 0 -0.166666667
-0.291666667 0.125 -0.166666667
-0.2 0.1 -0.166666667
-0.333333333 0 0.166666667
-0.166666667 0 0.166666667
-0.291666667 0.125 0.166666667
-0.2 0.1 0.166666667
-0.4 0.1 -0.5
-0.291666667 0.125 -0.5
-0.341506351 0.25 -0.5
-0.25 0.25 -0.5
-0.4 0.1 -0.166666667
-0.291666667 0.125 -0.166666667
-0.341506351 0.25 -0.166666667
-0.25 0.25 -0.166666667
-0.5 0 -0.5
-0.333333333 0 -0.5
-0.4 0.1 -0.5
-0.291666667 0.125 -0.5
-0.5 0 -0.166666667
-0.333333333 0 -0.166666667
-0.4 0.1 -0.166666667
-0.291666667 0.125 -0.166666667
-0.433012702 0.25 -0.5
-0.5 0 -0.5
-0.341506351 0.25 -0.5
-0.4 0.1 -0.5
-0.433012702 0.25 -0.166666667
-0.5 0 -0.166666667
-0.341506351 0.25 -0.166666667
-0.4 0.1 -0.166666667
-0.2 0.1 -0.5
-0.125 0.125 -0.5
-0.291666667 0.125 -0.5
-0.25 0.25 -0.5
-0.2 0.1 -0.166666667
-0.125 0.125 -0.166666667
-0.291666667 0.125 -0.166666667
-0.25 0.25 -0.166666667
-0.166666667 0 -0.5
0 0 -0.5
-0.2 0.1 -0.5
-0.125 0.125 -0.5
-0.166666667 0 -0.166666667
0 0 -0.166666667
-0.2 0.1 -0.166666667
-0.125 0.125 -0.166666667
-0.333333333 0 -0.5
-0.166666667 0 -0.5
-0.291666667 0.125 -0.5
-0.2 0.1 -0.5
-0.333333333 0 -0.166666667
-0.166666667 0 -0.166666667
-0.291666667 0.125 -0.166666667
-0.2 0.1 -0.166666667
0 -0.25 0.166666667
0 -0.5 0.166666667
0.1 -0.25 0.166666667
0.125 -0.375 0.166666667
0 -0.25 0.5
0 -0.5 0.5
0.1 -0.25 0.5
0.125 -0.375 0.5
0 0 0.166666667
0 -0.25 0.166666667
0.125 -0.125 0.166666667
0.1 -0.25 0.166666667
0 0 0.5
0 -0.25 0.5
0.125 -0.125 0.5
0.1 -0.25 0.5
0 -0.25 -0.166666667
0 -0.5 -0.166666667
0.1 -0.25 -0.166666667
0.125 -0.375 -0.166666667
0 -0.25 0.166666667
0 -0.5 0.166666667
0.1 -0.25 0.166666667
0.125 -0.375 0.166666667
0 0 -0.166666667
0 -0.25 -0.166666667
0.125 -0.125 -0.166666667
0.1 -0.25 -0.166666667
0 0 0.166666667
0 -0.25 0.166666667
0.125 -0.125 0.166666667
0.1 -0.25 0.166666667
0 -0.25 -0.5
0 -0.5 -0.5
0.1 -0.25 -0.5
0.125 -0.375 -0.5
0 -0.25 -0.166666667
0 -0.5 -0.166666667
0.1 -0.25 -0.166666667
0.125 -0.375 -0.166666667
0 0 -0.5
0 -0.25 -0.5
0.125 -0.125 -0.5
0.1 -0.25 -0.5
0 0 -0.166666667
0 -0.25 -0.166666667
0.125 -0.125 -0.166666667
0.1 -0.25 -0.166666667
-0.1 -0.1 0.166666667
-0.208333333 -0.125 0.166666667
-0.125 -0.25 0.166666667
-0.25 -0.25 0.166666667
-0.1 -0.1 0.5
-0.208333333 -0.125 0.5
-0.125 -0.25 0.5
-0.25 -0.25 0.5
0 0 0.166666667
-0.166666667 0 0.166666667
-0.1 -0.1 0.166666667
-0.208333333 -0.125 0.166666667
0 0 0.5
-0.166666667 0 0.5
-0.1 -0.1 0.5
-0.208333333 -0.125 0.5
0 -0.25 0.166666667
0 0 0.166666667
-0.125 -0.25 0.166666667
-0.1 -0.1 0.166666667
0 -0.25 0.5
0 0 0.5
-0.125 -0.25 0.5
-0.1 -0.1 0.5
-0.1 -0.4 0.166666667
-0.125 -0.25 0.166666667
-0.25 -0.341506351 0.166666667
-0.25 -0.25 0.166666667
-0.1 -0.4 0.5
-0.125 -0.25 0.5
-0.25 -0.341506351 0.5
-0.25 -0.25 0.5
0 -0.5 0.166666667
0 -0.25 0.166666667
-0.1 -0.4 0.166666667
-0.125 -0.25 0.166666667
0 -0.5 0.5
0 -0.25 0.5
-0.1 -0.4 0.5
-0.125 -0.25 0.5
-0.359807621 -0.25 0.166666667
-0.25 -0.341506351 0.166666667
-0.375 -0.125 0.166666667
-0.25 -0.25 0.166666667
-0.359807621 -0.25 0.5
-0.25 -0.341506351 0.5
-0.375 -0.125 0.5
-0.25 -0.25 0.5
-0.3 -0.1 0.166666667
-0.375 -0.125 0.166666667
-0.208333333 -0.125 0.166666667
-0.25 -0.25 0.166666667
-0.3 -0.1 0.5
-0.375 -0.125 0.5
-0.208333333 -0.125 0.5
-0.25 -0.25 0.5
-0.333333333 0 0.166666667
-0.5 0 0.166666667
-0.3 -0.1 0.166666667
-0.375 -0.125 0.166666667
-0.333333333 0 0.5
-0.5 0 0.5
-0.3 -0.1 0.5
-0.375 -0.125 0.5
-0.166666667 0 0.166666667
-0.333333333 0 0.166666667
-0.208333333 -0.125 0.166666667
-0.3 -0.1 0.166666667
-0.166666667 0 0.5
-0.333333333 0 0.5
-0.208333333 -0.125 0.5
-0.3 -0.1 0.5
-0.1 -0.1 -0.166666667
-0.208333333 -0.125 -0.166666667
-0.125 -0.25 -0.166666667
-0.25 -0.25 -0.166666667
-0.1 -0.1 0.166666667
-0.208333333 -0.125 0.166666667
-0.125 -0.25 0.166666667
-0.25 -0.25 0.166666667
0 0 -0.166666667
-0.166666667 0 -0.166666667
-0.1 -0.1 -0.166666667
-0.208333333 -0.125 -0.166666667
0 0 0.166666667
-0.166666667 0 0.166666667
-0.1 -0.1 0.166666667
-0.208333333 -0.125 0.166666667
0 -0.25 -0.166666667
0 0 -0.166666667
-0.125 -0.25 -0.166666667
-0.1 -0.1 -0.166666667
0 -0.25 0.166666667
0 0 0.166666667
-0.125 -0.25 0.166666667
-0.1 -0.1 0.166666667
-0.1 -0.4 -0.166666667
-0.125 -0.25 -0.166666667
-0.25 -0.341506351 -0.166666667
-0.25 -0.25 -0.166666667
-0.1 -0.4 0.166666667
-0.125 -0.25 0.166666667
-0.25 -0.341506351 0.166666667
-0.25 -0.25 0.166666667
0 -0.5 -0.166666667
0 -0.25 -0.166666667
-0.1 -0.4 -0.166666667
-0.125 -0.25 -0.166666667
0 -0.5 0.166666667
0 -0.25 0.166666667
-0.1 -0.4 0.166666667
-0.125 -0.25 0.166666667
-0.359807621 -0.25 -0.166666667
-0.25 -0.341506351 -0.166666667
-0.375 -0.125 -0.166666667
-0.25 -0.25 -0.166666667
-0.359807621 -0.25 0.166666667
-0.25 -0.341506351 0.166666667
-0.375 -0.125 0.166666667
-0.25 -0.25 0.166666667
-0.3 -0.1 -0.166666667
-0.375 -0.125 -0.166666667
-0.208333333 -0.125 -0.166666667
-0.25 -0.25 -0.166666667
-0.3 -0.1 0.166666667
-0.375 -0.125 0.166666667
-0.208333333 -0.125 0.166666667
-0.25 -0.25 0.166666667
-0.333333333 0 -0.166666667
-0.5 0 -0.166666667
-0.3 -0.1 -0.166666667
-0.375 -0.125 -0.166666667
-0.333333333 0 0.166666667
-0.5 0 0.166666667
-0.3 -0.1 0.166666667
-0.375 -0.125 0.166666667
-0.166666667 0 -0.166666667
-0.333333333 0 -0.166666667
-0.208333333 -0.125 -0.166666667
-0.3 -0.1 -0.166666667
-0.166666667 0 0.166666667
-0.333333333 0 0.166666667
-0.208333333 -0.125 0.166666667
-0.3 -0.1 0.166666667
-0.1 -0.1 -0.5
-0.208333333 -0.125 -0.5
-0.125 -0.25 -0.5
-0.25 -0.25 -0.5
-0.1 -0.1 -0.166666667
-0.208333333 -0.125 -0.166666667
-0.125 -0.25 -0.166666667
-0.25 -0.25 -0.166666667
0 0 -0.5
-0.166666667 0 -0.5
-0.1 -0.1 -0.5
-0.208333333 -0.125 -0.5
0 0 -0.166666667
-0.166666667 0 -0.166666667
-0.1 -0.1 -0.166666667
-0.208333333 -0.125 -0.166666667
0 -0.25 -0.5
0 0 -0.5
-0.125 -0.25 -0.5
-0.1 -0.1 -0.5
0 -0.25 -0.166666667
0 0 -0.166666667
-0.125 -0.25 -0.166666667
-0.1 -0.1 -0.166666667
-0.1 -0.4 -0.5
-0.125 -0.25 -0.5
-0.25 -0.341506351 -0.5
-0.25 -0.25 -0.5
-0.1 -0.4 -0.166666667
-0.125 -0.25 -0.166666667
-0.25 -0.341506351 -0.166666667
-0.25 -0.25 -0.166666667
0 -0.5 -0.5
0 -0.25 -0.5
-0.1 -0.4 -0.5
-0.125 -0.25 -0.5
0 -0.5 -0.166666667
0 -0.25 -0.166666667
-0.1 -0.4 -0.166666667
-0.125 -0.25 -0.166666667
-0.359807621 -0.25 -0.5
-0.25 -0.341506351 -0.5
-0.375 -0.125 -0.5
-0.25 -0.25 -0.5
-0.359807621 -0.25 -0.166666667
-0.25 -0.341506351 -0.166666667
-0.375 -0.125 -0.166666667
-0.25 -0.25 -0.166666667
-0.3 -0.1 -0.5
-0.375 -0.125 -0.5
-0.208333333 -0.125 -0.5
-0.25 -0.25 -0.5
-0.3 -0.1 -0.166666667
-0.375 -0.125 -0.166666667
-0.208333333 -0.125 -0.166666667
-0.25 -0.25 -0.166666667
-0.333333333 0 -0.5
-0.5 0 -0.5
-0.3 -0.1 -0.5
-0.375 -0.125 -0.5
-0.333333333 0 -0.166666667
-0.5 0 -0.166666667
-0.3 -0.1 -0.166666667
-0.375 -0.125 -0.166666667
-0.166666667 0 -0.5
-0.333333333 0 -0.5
-0.208333333 -0.125 -0.5
-0.3 -0.1 -0.5
-0.166666667 0 -0.166666667
-0.333333333 0 -0.166666667
-0.208333333 -0.125 -0.166666667
-0.3 -0.1 -0.166666667
</DataArray>
</Points>
<Cells>
<DataArray type="Int32" Name="connectivity" format="ascii">
0 1 3 2 4 5 7 6 
8 9 11 10 12 13 15 14 
16 17 19 18 20 21 23 22 
24 25 27 26 28 29 31 30 
32 33 35 34 36 37 39 38 
40 41 43 42 44 45 47 46 
48 49 51 50 52 53 55 54 
56 57 59 58 60 61 63 62 
64 65 67 66 68 69 71 70 
72 73 75 74 76 77 79 78 
80 81 83 82 84 85 87 86 
88 89 91 90 92 93 95 94 
96 97 99 98 100 101 103 102 
104 105 107 106 108 109 111 110 
112 113 115 114 116 117 119 118 
120 121 123 122 124 125 127 126 
128 129 131 130 132 133 135 134 
136 137 139 138 140 141 143 142 
144 145 147 146 148 149 151 150 
152 153 155 154 156 157 159 158 
160 161 163 162 164 165 167 166 
168 169 171 170 172 173 175 174 
176 177 179 178 180 181 183 182 
184 185 187 186 188 189 191 190 
192 193 195 194 196 197 199 198 
200 201 203 202 204 205 207 206 
208 209 211 210 212 213 215 214 
216 217 219 218 220 221 223 222 
224 225 227 226 228 229 231 230 
232 233 235 234 236 237 239 238 
240 241 243 242 244 245 247 246 
248 249 251 250 252 253 255 254 
256 257 259 258 260 261 263 262 
264 265 267 266 268 269 271 270 
272 273 275 274 276 277 279 278 
280 281 283 282 284 285 287 286 
288 289 291 290 292 293 295 294 
296 297 299 298 300 301 303 302 
304 305 307 306 308 309 311 310 
312 313 315 314 316 317 319 318 
320 321 323 322 324 325 327 326 
328 329 331 330 332 333 335 334 
336 337 339 338 340 341 343 342 
344 345 347 346 348 349 351 350 
352 353 355 354 356 357 359 358 
360 361 363 362 364 365 367 366 
368 369 371 370 372 373 375 374 
376 377 379 378 380 381 383 382 
384 385 387 386 388 389 391 390 
392 393 395 394 396 397 399 398 
400 401 403 402 404 405 407 406 
</DataArray>
<DataArray type="Int32" Name="offsets" format="ascii">
8
16
24
32
40
48
56
64
72
80
88
96
104
112
120
128
136
144
152
160
168
176
184
192
200
208
216
224
232
240
248
256
264
272
280
288
296
304
312
320
328
336
344
352
360
368
376
384
392
400
408
</DataArray>
<DataArray type="UInt8" Name="types" format="ascii">
12
12
12
12
12
12
12
12
12
12
12
12
12
12
12
12
12
12
12
12
12
12
12
12
12
12
12
12
12
12
12
12
12
12
12
12
12
12
12
12
12
12
12
12
12
12
12
12
12
12
12
</DataArray>
</Cells>
<CellData Scalars="attribute">
<DataArray type="Int32" Name="attribute" format="ascii">
1
1
1
1
1
1
1
1
1
1
1
1
1
1
1
1
1
1
1
1
1
1
1
1
1
1
1
1
1
1
1
1
1
1
1
1
1
1
1
1
1
1
1
1
1
1
1
1
1
1
1
</DataArray>
</CellData>
<PointData >
<DataArray type="Float64" Name="a_field" NumberOfComponents="3" ComponentName0="0" ComponentName1="1" ComponentName2="2" format="ascii" >
0.00589542341 -0.00142966058 0.105617423 
0.00644585988 -0.0038148853 0.121406261 
0.00288778259 -0.000256808007 0.104136358 
0.00288778259 -0.00262885954 0.116212488 
0 0 0.105617423 
0 0 0.121406261 
0 0 0.104136358 
0 0 0.116212488 
0.00523217832 0.00159437255 0.0886072234 
0.00523217832 0.00156437833 0.120115901 
0.005187187 0.00163936387 0.105617423 
0.0052021841 0.0015743764 0.121406261 
0 0 0.0886072234 
0 0 0.120115901 
0 0 0.105617423 
0 0 0.121406261 
0.00481027153 -0.0011447177 0.0859890909 
0.00545699772 0.00136955315 0.0886072234 
0.00481027153 -0.0010064973 0.104136358 
0.00976529914 -0.00293874827 0.105617423 
0 0 0.0859890909 
0 0 0.0886072234 
0 0 0.104136358 
0 0 0.105617423 
-0.0010114831 -0.0227193401 0.132169309 
-0.00635904205 -0.00667666325 0.139396767 
0.00433607584 -0.00311162395 0.121406261 
-0.0010114831 -0.0013291043 0.116212488 
0 0 0.132169309 
0 0 0.139396767 
0 0 0.121406261 
0 0 0.116212488 
-0.00287175561 0.0026513821 0.139345374 
-0.00287175561 -0.00130659883 0.15100906 
-0.00880872701 0.000672391636 0.132169309 
-0.00682973654 -0.00526457976 0.139396767 
0 0 0.139345374 
0 0 0.15100906 
0 0 0.132169309 
0 0 0.139396767 
0.00316773325 0.00225252669 0.120115901 
0.00316773325 0.00466454505 0.139345374 
0.00557975162 0.00144852057 0.121406261 
0.0067857608 0.00587055424 0.132169309 
0 0 0.120115901 
0 0 0.139345374 
0 0 0.121406261 
0 0 0.132169309 
0.00307952013 -0.00340925566 0.101886428 
0.00343608559 -0.00495437264 0.120547692 
0.00113121024 -0.00264949729 0.102181505 
0.00113121024 -0.00418608086 0.115532598 
0.00589542341 -0.00142966058 0.101886428 
0.00644585988 -0.0038148853 0.120547692 
0.00288778259 -0.000256808007 0.102181505 
0.00288778259 -0.00262885954 0.115532598 
-0.00226907383 0.0038647381 0.0812589967 
-0.00226907383 0.00704538745 0.119134389 
0.00250190019 -0.000906235917 0.101886428 
0.000911575518 0.005985171 0.120547692 
0.00523217832 0.00159437255 0.0812589967 
0.00523217832 0.00156437833 0.119134389 
0.005187187 0.00163936387 0.101886428 
0.0052021841 0.0015743764 0.120547692 
0.000775250273 -0.00148730751 0.0816060364 
0.00251312613 -0.000917461855 0.0812589967 
0.000775250273 -0.00251068798 0.102181505 
0.00623569418 -0.00464002991 0.101886428 
0.00481027153 -0.0011447177 0.0816060364 
0.00545699772 0.00136955315 0.0812589967 
0.00481027153 -0.0010064973 0.102181505 
0.00976529914 -0.00293874827 0.101886428 
-0.00158796906 0.00629338576 0.135071021 
0.000805299322 -0.000886419379 0.138320699 
-0.00398123744 -0.00248193163 0.120547692 
-0.00158796906 -0.00327968776 0.115532598 
-0.0010114831 -0.0227193401 0.135071021 
-0.00635904205 -0.00667666325 0.138320699 
0.00433607584 -0.00311162395 0.120547692 
-0.0010114831 -0.0013291043 0.115532598 
-0.00302237499 0.00104416753 0.140697393 
-0.00302237499 0.00295465473 0.151000511 
-0.00015664418 0.00199941113 0.135071021 
-0.00111188778 0.00486514194 0.138320699 
-0.00287175561 0.0026513821 0.140697393 
-0.00287175561 -0.00130659883 0.151000511 
-0.00880872701 0.000672391636 0.135071021 
-0.00682973654 -0.00526457976 0.138320699 
0.00166840577 0.00573289425 0.119134389 
0.00166840577 0.00260776111 0.140697393 
-0.00145672736 0.00677460529 0.120547692 
-0.00301929393 0.00104519454 0.135071021 
0.00316773325 0.00225252669 0.119134389 
0.00316773325 0.00466454505 0.140697393 
0.00557975162 0.00144852057 0.120547692 
0.0067857608 0.00587055424 0.135071021 
0 0 0.107765145 
0 0 0.126107921 
0 0 0.105681499 
0 0 0.118860919 
0.00307952013 -0.00340925566 0.107765145 
0.00343608559 -0.00495437264 0.126107921 
0.00113121024 -0.00264949729 0.105681499 
0.00113121024 -0.00418608086 0.118860919 
0 0 0.0882282807 
0 0 0.12121851 
0 0 0.107765145 
0 0 0.126107921 
-0.00226907383 0.0038647381 0.0882282807 
-0.00226907383 0.00704538745 0.12121851 
0.00250190019 -0.000906235917 0.107765145 
0.000911575518 0.005985171 0.126107921 
0 0 0.0860008998 
0 0 0.0882282807 
0 0 0.105681499 
0 0 0.107765145 
0.000775250273 -0.00148730751 0.0860008998 
0.00251312613 -0.000917461855 0.0882282807 
0.000775250273 -0.00251068798 0.105681499 
0.00623569418 -0.00464002991 0.107765145 
0 0 0.137388066 
0 0 0.142798701 
0 0 0.126107921 
0 0 0.118860919 
-0.00158796906 0.00629338576 0.137388066 
0.000805299322 -0.000886419379 0.142798701 
-0.00398123744 -0.00248193163 0.126107921 
-0.00158796906 -0.00327968776 0.118860919 
0 0 0.142866053 
0 0 0.151582674 
0 0 0.137388066 
0 0 0.142798701 
-0.00302237499 0.00104416753 0.142866053 
-0.00302237499 0.00295465473 0.151582674 
-0.00015664418 0.00199941113 0.137388066 
-0.00111188778 0.00486514194 0.142798701 
0 0 0.12121851 
0 0 0.142866053 
0 0 0.126107921 
0 0 0.137388066 
0.00166840577 0.00573289425 0.12121851 
0.00166840577 0.00260776111 0.142866053 
-0.00145672736 0.00677460529 0.126107921 
-0.00301929393 0.00104519454 0.137388066 
-0.00515181796 0.00289958878 0.132344146 
-0.000996291653 0.00289958878 0.0878278228 
-0.00515181796 -0.00125593753 0.129713202 
0.00177405922 0.000129237911 0.109808905 
0 0 0.132344146 
0 0 0.0878278228 
0 0 0.129713202 
0 0 0.109808905 
-0.00134629486 -0.00108466029 0.15100906 
-0.00515181796 -0.00108466029 0.132344146 
0.00119072054 0.00145235511 0.140081814 
-0.00515181796 0.00272086281 0.129713202 
0 0 0.15100906 
0 0 0.132344146 
0 0 0.140081814 
0 0 0.129713202 
-0.00590114544 -0.00158026971 0.132184092 
-0.00504773478 -0.00158026971 0.0821331832 
-0.00590114544 -0.00243368037 0.128232401 
-0.00447879434 -0.00214921015 0.10802724 
-0.00515181796 0.00289958878 0.132184092 
-0.000996291653 0.00289958878 0.0821331832 
-0.00515181796 -0.00125593753 0.128232401 
0.00177405922 0.000129237911 0.10802724 
-0.00751615719 -0.00237132718 0.151000511 
-0.00590114544 -0.00237132718 0.132184092 
-0.00859283168 -0.00344800167 0.14180635 
-0.00590114544 -0.00398633892 0.128232401 
-0.00134629486 -0.00108466029 0.151000511 
-0.00515181796 -0.00108466029 0.132184092 
0.00119072054 0.00145235511 0.14180635 
-0.00515181796 0.00272086281 0.128232401 
0 0 0.135509751 
0 0 0.0900039378 
0 0 0.129562918 
0 0 0.110213255 
-0.00590114544 -0.00158026971 0.135509751 
-0.00504773478 -0.00158026971 0.0900039378 
-0.00590114544 -0.00243368037 0.129562918 
-0.00447879434 -0.00214921015 0.110213255 
0 0 0.151582674 
0 0 0.135509751 
0 0 0.138628003 
0 0 0.129562918 
-0.00751615719 -0.00237132718 0.151582674 
-0.00590114544 -0.00237132718 0.135509751 
-0.00859283168 -0.00344800167 0.138628003 
-0.00590114544 -0.00398633892 0.129562918 
-0.00240480193 0.000444231096 0.141157967 
-0.00328280871 0.00424892716 0.131305418 
0.0011072252 -0.000141106759 0.127905631 
0.0011072252 0.00278558252 0.116259962 
0 0 0.141157967 
0 0 0.131305418 
0 0 0.127905631 
0 0 0.116259962 
-0.00287175561 0.000116531838 0.15100906 
-0.00287175561 0.000586764882 0.139345374 
-0.00216640605 -0.000588817729 0.141157967 
-0.00240152257 0.000430020534 0.131305418 
0 0 0.15100906 
0 0 0.139345374 
0 0 0.141157967 
0 0 0.131305418 
1.72584803e-05 -0.00108466029 0.132344146 
-0.00167056349 -0.00108466029 0.15100906 
1.72584803e-05 4.05543616e-05 0.127905631 
-0.00335838546 0.000603161685 0.141157967 
0 0 0.132344146 
0 0 0.15100906 
0 0 0.127905631 
0 0 0.141157967 
0.00164381264 0.00389976926 0.105656199 
0.0011072252 0.00381033802 0.127905631 
0.00192964851 0.00463276132 0.104740941 
0.0011072252 0.00463276132 0.116259962 
0 0 0.105656199 
0 0 0.127905631 
0 0 0.104740941 
0 0 0.116259962 
0.00111089065 0.00289958878 0.0878278228 
1.72584803e-05 0.00289958878 0.132344146 
0.00220452282 0.00399322096 0.105656199 
1.72584803e-05 0.0036286769 0.127905631 
0 0 0.0878278228 
0 0 0.132344146 
0 0 0.105656199 
0 0 0.127905631 
0.00359183963 0.00219139962 0.100968325 
0.00562630771 0.00463276132 0.104740941 
0.00562630771 0.0024386669 0.110120758 
0.00782040214 0.00463276132 0.116259962 
0 0 0.100968325 
0 0 0.104740941 
0 0 0.110120758 
0 0 0.116259962 
0.0047567238 0.0131251028 0.120982586 
0.00764572874 0.00445808793 0.110120758 
0.00186771886 0.00253208463 0.131305418 
0.0047567238 0.00156908299 0.116259962 
0 0 0.120982586 
0 0 0.110120758 
0 0 0.131305418 
0 0 0.116259962 
0.00523217832 -0.00291955025 0.120115901 
0.00523217832 4.10763997e-06 0.0886072234 
0.00961766516 -0.00145772131 0.120982586 
0.00815583621 0.00292776553 0.110120758 
0 0 0.120115901 
0 0 0.0886072234 
0 0 0.120982586 
0 0 0.110120758 
0.00316773325 -0.00142639807 0.139345374 
0.00316773325 -0.00360769861 0.120115901 
0.000986432712 -0.000699297893 0.131305418 
-0.000104217556 -0.00469834888 0.120982586 
0 0 0.139345374 
0 0 0.120115901 
0 0 0.131305418 
0 0 0.120982586 
-0.00647809986 0.00286755796 0.146293762 
-0.00660791744 0.00343010081 0.136047385 
-0.00595882954 0.00278101291 0.133806882 
-0.00595882954 0.00321373817 0.119096234 
-0.00240480193 0.000444231096 0.146293762 
-0.00328280871 0.00424892716 0.136047385 
0.0011072252 -0.000141106759 0.133806882 
0.0011072252 0.00278558252 0.119096234 
-0.00302237499 0.0146597429 0.151000511 
-0.00302237499 0.00930634437 0.140697393 
-0.0110524728 0.0226898407 0.146293762 
-0.00837577353 0.0110908106 0.136047385 
-0.00287175561 0.000116531838 0.151000511 
-0.00287175561 0.000586764882 0.140697393 
-0.00216640605 -0.000588817729 0.146293762 
-0.00240152257 0.000430020534 0.136047385 
0.0161979983 -0.00237132718 0.132184092 
0.0140086951 -0.00237132718 0.151000511 
0.0161979983 -0.000911791732 0.133806882 
0.0118193919 -0.000182024008 0.146293762 
1.72584803e-05 -0.00108466029 0.132184092 
-0.00167056349 -0.00108466029 0.151000511 
1.72584803e-05 4.05543616e-05 0.133806882 
-0.00335838546 0.000603161685 0.146293762 
-0.00224745954 -0.0113537546 0.1033536 
-0.00595882954 -0.0119723163 0.133806882 
-0.000270442168 -0.00628392893 0.103308592 
-0.00595882954 -0.00628392893 0.119096234 
0.00164381264 0.00389976926 0.1033536 
0.0011072252 0.00381033802 0.133806882 
0.00192964851 0.00463276132 0.103308592 
0.0011072252 0.00463276132 0.119096234 
0.00614913535 -0.00158026971 0.0821331832 
0.0161979983 -0.00158026971 0.132184092 
-0.00389972758 -0.0116291326 0.1033536 
0.0161979983 -0.00827951167 0.133806882 
0.00111089065 0.00289958878 0.0821331832 
1.72584803e-05 0.00289958878 0.132184092 
0.00220452282 0.00399322096 0.1033536 
1.72584803e-05 0.0036286769 0.133806882 
-0.00150299605 -0.000478752213 0.0980089743 
-0.00634064332 -0.00628392893 0.103308592 
-0.00634064332 -0.00106671517 0.108588576 
-0.0115578571 -0.00628392893 0.119096234 
0.00359183963 0.00219139962 0.0980089743 
0.00562630771 0.00463276132 0.103308592 
0.00562630771 0.0024386669 0.108588576 
0.00782040214 0.00463276132 0.119096234 
-0.00303484986 -0.00512545174 0.124626945 
-0.00487598237 0.000397945775 0.108588576 
-0.00119371736 0.00162536745 0.136047385 
-0.00303484986 0.00223907828 0.119096234 
0.0047567238 0.0131251028 0.124626945 
0.00764572874 0.00445808793 0.108588576 
0.00186771886 0.00253208463 0.136047385 
0.0047567238 0.00156908299 0.119096234 
-0.00226907383 0.00533599056 0.119134389 
-0.00226907383 0.00278423647 0.0812589967 
-0.00609670495 0.00406011352 0.124626945 
-0.00482082791 0.000232482395 0.108588576 
0.00523217832 -0.00291955025 0.119134389 
0.00523217832 4.10763997e-06 0.0812589967 
0.00961766516 -0.00145772131 0.124626945 
0.00815583621 0.00292776553 0.108588576 
0.00166840577 0.00774275079 0.140697393 
0.00166840577 0.00664848376 0.119134389 
0.000574138738 0.00810750647 0.136047385 
2.70052216e-05 0.00610135024 0.124626945 
0.00316773325 -0.00142639807 0.140697393 
0.00316773325 -0.00360769861 0.119134389 
0.000986432712 -0.000699297893 0.136047385 
-0.000104217556 -0.00469834888 0.124626945 
0 0 0.139066937 
0 0 0.131852948 
0 0 0.124990514 
0 0 0.115164197 
-0.00647809986 0.00286755796 0.139066937 
-0.00660791744 0.00343010081 0.131852948 
-0.00595882954 0.00278101291 0.124990514 
-0.00595882954 0.00321373817 0.115164197 
0 0 0.151582674 
0 0 0.142866053 
0 0 0.139066937 
0 0 0.131852948 
-0.00302237499 0.0146597429 0.151582674 
-0.00302237499 0.00930634437 0.142866053 
-0.0110524728 0.0226898407 0.139066937 
-0.00837577353 0.0110908106 0.131852948 
0 0 0.135509751 
0 0 0.151582674 
0 0 0.124990514 
0 0 0.139066937 
0.0161979983 -0.00237132718 0.135509751 
0.0140086951 -0.00237132718 0.151582674 
0.0161979983 -0.000911791732 0.124990514 
0.0118193919 -0.000182024008 0.139066937 
0 0 0.106050102 
0 0 0.124990514 
0 0 0.104098453 
0 0 0.115164197 
-0.00224745954 -0.0113537546 0.106050102 
-0.00595882954 -0.0119723163 0.124990514 
-0.000270442168 -0.00628392893 0.104098453 
-0.00595882954 -0.00628392893 0.115164197 
0 0 0.0900039378 
0 0 0.135509751 
0 0 0.106050102 
0 0 0.124990514 
0.00614913535 -0.00158026971 0.0900039378 
0.0161979983 -0.00158026971 0.135509751 
-0.00389972758 -0.0116291326 0.106050102 
0.0161979983 -0.00827951167 0.124990514 
0 0 0.100107878 
0 0 0.104098453 
0 0 0.109807351 
0 0 0.115164197 
-0.00150299605 -0.000478752213 0.100107878 
-0.00634064332 -0.00628392893 0.104098453 
-0.00634064332 -0.00106671517 0.109807351 
-0.0115578571 -0.00628392893 0.115164197 
0 0 0.121656574 
0 0 0.109807351 
0 0 0.131852948 
0 0 0.115164197 
-0.00303484986 -0.00512545174 0.121656574 
-0.00487598237 0.000397945775 0.109807351 
-0.00119371736 0.00162536745 0.131852948 
-0.00303484986 0.00223907828 0.115164197 
0 0 0.12121851 
0 0 0.0882282807 
0 0 0.121656574 
0 0 0.109807351 
-0.00226907383 0.00533599056 0.12121851 
-0.00226907383 0.00278423647 0.0882282807 
-0.00609670495 0.00406011352 0.121656574 
-0.00482082791 0.000232482395 0.109807351 
0 0 0.142866053 
0 0 0.12121851 
0 0 0.131852948 
0 0 0.121656574 
0.00166840577 0.00774275079 0.142866053 
0.00166840577 0.00664848376 0.12121851 
0.000574138738 0.00810750647 0.131852948 
2.70052216e-05 0.00610135024 0.121656574 
</DataArray>
<DataArray type="Float64" Name="b_field" NumberOfComponents="3" ComponentName0="0" ComponentName1="1" ComponentName2="2" format="ascii" >
-0.0775930452 -0.180345712 -1.01178897e-15 
-0.109086819 -0.187613506 -1.1969592e-15 
-0.0621070603 -0.140633747 -1.09005111e-15 
-0.0934268995 -0.140633747 -1.30806134e-15 
-0.0775930452 -0.180345712 0 
-0.109086819 -0.187613506 0 
-0.0621070603 -0.140633747 0 
-0.0934268995 -0.140633747 0 
-0.0141669494 -0.204748599 -3.57786717e-16 
-0.0480013375 -0.204748599 -2.86229374e-16 
0.0365846326 -0.153997017 -7.15573434e-16 
-0.0367232081 -0.170914211 -4.77048956e-16 
-0.0141669494 -0.204748599 0 
-0.0480013375 -0.204748599 0 
0.0365846326 -0.153997017 0 
-0.0367232081 -0.170914211 0 
-0.128055782 -0.212747837 -4.28324962e-16 
-0.00645746432 -0.197039114 -3.41766714e-16 
-0.0902285021 -0.212747837 -6.63509374e-16 
-0.133736009 -0.324317658 -9.95264061e-16 
-0.128055782 -0.212747837 0 
-0.00645746432 -0.197039114 0 
-0.0902285021 -0.212747837 0 
-0.133736009 -0.324317658 0 
-0.102888809 -0.104908587 -2.47198095e-15 
-0.086861087 -0.0995660126 -8.23993651e-16 
-0.0832993709 -0.110251161 -8.23993651e-16 
-0.0815185128 -0.104908587 -4.94396191e-16 
-0.102888809 -0.104908587 0 
-0.086861087 -0.0995660126 0 
-0.0832993709 -0.110251161 0 
-0.0815185128 -0.104908587 0 
-0.0404791283 -0.0613668513 -7.42979857e-16 
-0.0268360233 -0.0613668513 -5.07406617e-16 
-0.0336575758 -0.0818315089 -1.26851654e-15 
-0.0131929183 -0.0750099564 -8.45677695e-16 
-0.0404791283 -0.0613668513 0 
-0.0268360233 -0.0613668513 0 
-0.0336575758 -0.0818315089 0 
-0.0131929183 -0.0750099564 0 
-0.0213784839 -0.124880038 -7.07767178e-16 
-0.0193080661 -0.124880038 -9.82762972e-16 
-0.0220686231 -0.126950456 -1.17961196e-15 
-0.0182728572 -0.127985665 -1.76941795e-15 
-0.0213784839 -0.124880038 0 
-0.0193080661 -0.124880038 0 
-0.0220686231 -0.126950456 0 
-0.0182728572 -0.127985665 0 
-0.0775930452 -0.180345712 -5.35221699e-16 
-0.109086819 -0.187613506 -6.33174069e-16 
-0.0621070603 -0.140633747 -5.76621242e-16 
-0.0934268995 -0.140633747 -6.9194549e-16 
-0.0775930452 -0.180345712 -1.01178897e-15 
-0.109086819 -0.187613506 -1.1969592e-15 
-0.0621070603 -0.140633747 -1.09005111e-15 
-0.0934268995 -0.140633747 -1.30806134e-15 
-0.0141669494 -0.204748599 -1.98307771e-16 
-0.0480013375 -0.204748599 -2.60208521e-16 
0.0365846326 -0.153997017 -6.50521303e-16 
-0.0367232081 -0.170914211 -2.77382553e-16 
-0.0141669494 -0.204748599 -3.57786717e-16 
-0.0480013375 -0.204748599 -2.86229374e-16 
0.0365846326 -0.153997017 -7.15573434e-16 
-0.0367232081 -0.170914211 -4.77048956e-16 
-0.128055782 -0.212747837 -4.3360498e-16 
-0.00645746432 -0.197039114 -1.80928361e-16 
-0.0902285021 -0.212747837 -6.68375387e-16 
-0.133736009 -0.324317658 -9.89339871e-16 
-0.128055782 -0.212747837 -4.28324962e-16 
-0.00645746432 -0.197039114 -3.41766714e-16 
-0.0902285021 -0.212747837 -6.63509374e-16 
-0.133736009 -0.324317658 -9.95264061e-16 
-0.102888809 -0.104908587 2.92734587e-16 
-0.086861087 -0.0995660126 9.75781955e-17 
-0.0832993709 -0.110251161 1.49257949e-16 
-0.0815185128 -0.104908587 5.85469173e-17 
-0.102888809 -0.104908587 -2.47198095e-15 
-0.086861087 -0.0995660126 -8.23993651e-16 
-0.0832993709 -0.110251161 -8.23993651e-16 
-0.0815185128 -0.104908587 -4.94396191e-16 
-0.0404791283 -0.0613668513 -5.12352414e-16 
-0.0268360233 -0.0613668513 -3.87849773e-16 
-0.0336575758 -0.0818315089 -1.03533034e-15 
-0.0131929183 -0.0750099564 -7.37257477e-16 
-0.0404791283 -0.0613668513 -7.42979857e-16 
-0.0268360233 -0.0613668513 -5.07406617e-16 
-0.0336575758 -0.0818315089 -1.26851654e-15 
-0.0131929183 -0.0750099564 -8.45677695e-16 
-0.0213784839 -0.124880038 4.93918609e-16 
-0.0193080661 -0.124880038 6.34258271e-16 
-0.0220686231 -0.126950456 9.31456334e-16 
-0.0182728572 -0.127985665 1.43090452e-15 
-0.0213784839 -0.124880038 -7.07767178e-16 
-0.0193080661 -0.124880038 -9.82762972e-16 
-0.0220686231 -0.126950456 -1.17961196e-15 
-0.0182728572 -0.127985665 -1.76941795e-15 
-0.0775930452 -0.180345712 0 
-0.109086819 -0.187613506 0 
-0.0621070603 -0.140633747 0 
-0.0934268995 -0.140633747 0 
-0.0775930452 -0.180345712 -5.35221699e-16 
-0.109086819 -0.187613506 -6.33174069e-16 
-0.0621070603 -0.140633747 -5.76621242e-16 
-0.0934268995 -0.140633747 -6.9194549e-16 
-0.0141669494 -0.204748599 0 
-0.0480013375 -0.204748599 0 
0.0365846326 -0.153997017 0 
-0.0367232081 -0.170914211 0 