<VTKFile type="UnstructuredGrid" version="2.2" byte_order="LittleEndian">
<UnstructuredGrid>
<Piece NumberOfPoints="2016" NumberOfCells="252">
<Points>
<DataArray type="Float64" NumberOfComponents="3" format="ascii">
-0.4 0.1 0.166666667
-0.291666667 0.125 0.166666667
-0.341506351 0.25 0.166666667
-0.25 0.25 0.166666667
-0.4 0.1 0.5
-0.291666667 0.125 0.5
-0.341506351 0.25 0.5
-0.25 0.25 0.5
-0.5 0 0.166666667
-0.333333333 0 0.166666667
-0.4 0.1 0.166666667
-0.291666667 0.125 0.166666667
-0.5 0 0.5
-0.333333333 0 0.5
-0.4 0.1 0.5
-0.291666667 0.125 0.5
-0.433012702 0.25 0.166666667
-0.5 0 0.166666667
-0.341506351 0.25 0.166666667
-0.4 0.1 0.166666667
-0.433012702 0.25 0.5
-0.5 0 0.5
-0.341506351 0.25 0.5
-0.4 0.1 0.5
-0.25 0.359807621 0.166666667
-0.341506351 0.25 0.166666667
-0.125 0.375 0.166666667
-0.25 0.25 0.166666667
-0.25 0.359807621 0.5
-0.341506351 0.25 0.5
-0.125 0.375 0.5
-0.25 0.25 0.5
-0.25 0.433012702 0.166666667
-0.433012702 0.25 0.166666667
-0.25 0.359807621 0.166666667
-0.341506351 0.25 0.166666667
-0.25 0.433012702 0.5
-0.433012702 0.25 0.5
-0.25 0.359807621 0.5
-0.341506351 0.25 0.5
0 0.5 0.166666667
-0.25 0.433012702 0.166666667
-0.125 0.375 0.166666667
-0.25 0.359807621 0.166666667
0 0.5 0.5
-0.25 0.433012702 0.5
-0.125 0.375 0.5
-0.25 0.359807621 0.5
-0.1 0.25 0.166666667
-0.125 0.375 0.166666667
-0.125 0.125 0.166666667
-0.25 0.25 0.166666667
-0.1 0.25 0.5
-0.125 0.375 0.5
-0.125 0.125 0.5
-0.25 0.25 0.5
0 0.25 0.166666667
0 0.5 0.166666667
-0.1 0.25 0.166666667
-0.125 0.375 0.166666667
0 0.25 0.5
0 0.5 0.5
-0.1 0.25 0.5
-0.125 0.375 0.5
0 0 0.166666667
0 0.25 0.166666667
-0.125 0.125 0.166666667
-0.1 0.25 0.166666667
0 0 0.5
0 0.25 0.5
-0.125 0.125 0.5
-0.1 0.25 0.5
-0.2 0.1 0.166666667
-0.125 0.125 0.166666667
-0.291666667 0.125 0.166666667
-0.25 0.25 0.166666667
-0.2 0.1 0.5
-0.125 0.125 0.5
-0.291666667 0.125 0.5
-0.25 0.25 0.5
-0.166666667 0 0.166666667
0 0 0.166666667
-0.2 0.1 0.166666667
-0.125 0.125 0.166666667
-0.166666667 0 0.5
0 0 0.5
-0.2 0.1 0.5
-0.125 0.125 0.5
-0.333333333 0 0.166666667
-0.166666667 0 0.166666667
-0.291666667 0.125 0.166666667
-0.2 0.1 0.166666667
-0.333333333 0 0.5
-0.166666667 0 0.5
-0.291666667 0.125 0.5
-0.2 0.1 0.5
-0.4 0.1 -0.166666667
-0.291666667 0.125 -0.166666667
-0.341506351 0.25 -0.166666667
-0.25 0.25 -0.166666667
-0.4 0.1 0.166666667
-0.291666667 0.125 0.166666667
-0.341506351 0.25 0.166666667
-0.25 0.25 0.166666667
-0.5 0 -0.166666667
-0.333333333 0 -0.166666667
-0.4 0.1 -0.166666667
-0.291666667 0.125 -0.166666667
-0.5 0 0.166666667
-0.333333333 0 0.166666667
-0.4 0.1 0.166666667
-0.291666667 0.125 0.166666667
-0.433012702 0.25 -0.166666667
-0.5 0 -0.166666667
-0.341506351 0.25 -0.166666667
-0.4 0.1 -0.166666667
-0.433012702 0.25 0.166666667
-0.5 0 0.166666667
-0.341506351 0.25 0.166666667
-0.4 0.1 0.166666667
-0.25 0.359807621 -0.166666667
-0.341506351 0.25 -0.166666667
-0.125 0.375 -0.166666667
-0.25 0.25 -0.166666667
-0.25 0.359807621 0.166666667
-0.341506351 0.25 0.166666667
-0.125 0.375 0.166666667
-0.25 0.25 0.166666667
-0.25 0.433012702 -0.166666667
-0.433012702 0.25 -0.166666667
-0.25 0.359807621 -0.166666667
-0.341506351 0.25 -0.166666667
-0.25 0.433012702 0.166666667
-0.433012702 0.25 0.166666667
-0.25 0.359807621 0.166666667
-0.341506351 0.25 0.166666667
0 0.5 -0.166666667
-0.25 0.433012702 -0.166666667
-0.125 0.375 -0.166666667
-0.25 0.359807621 -0.166666667
0 0.5 0.166666667
-0.25 0.433012702 0.166666667
-0.125 0.375 0.166666667
-0.25 0.359807621 0.166666667
-0.1 0.25 -0.166666667
-0.125 0.375 -0.166666667
-0.125 0.125 -0.166666667
-0.25 0.25 -0.166666667
-0.1 0.25 0.166666667
-0.125 0.375 0.166666667
-0.125 0.125 0.166666667
-0.25 0.25 0.166666667
0 0.25 -0.166666667
0 0.5 -0.166666667
-0.1 0.25 -0.166666667
-0.125 0.375 -0.166666667
0 0.25 0.166666667
0 0.5 0.166666667
-0.1 0.25 0.166666667
-0.125 0.375 0.166666667
0 0 -0.166666667
0 0.25 -0.166666667
-0.125 0.125 -0.166666667
-0.1 0.25 -0.166666667
0 0 0.166666667
0 0.25 0.166666667
-0.125 0.125 0.166666667
-0.1 0.25 0.166666667
-0.2 0.1 -0.166666667
-0.125 0.125 -0.166666667
-0.291666667 0.125 -0.166666667
-0.25 0.25 -0.166666667
-0.2 0.1 0.166666667
-0.125 0.125 0.166666667
-0.291666667 0.125 0.166666667
-0.25 0.25 0.166666667
-0.166666667 0 -0.166666667
0 0 -0.166666667
-0.2 0.1 -0.166666667
-0.125 0.125 -0.166666667
-0.166666667 0 0.166666667
0 0 0.166666667
-0.2 0.1 0.166666667
-0.125 0.125 0.166666667
-0.333333333 0 -0.166666667
-0.166666667 0 -0.166666667
-0.291666667 0.125 -0.166666667
-0.2 0.1 -0.166666667
-0.333333333 0 0.166666667
-0.166666667 0 0.166666667
-0.291666667 0.125 0.166666667
-0.2 0.1 0.166666667
-0.4 0.1 -0.5
-0.291666667 0.125 -0.5
-0.341506351 0.25 -0.5
-0.25 0.25 -0.5
-0.4 0.1 -0.166666667
-0.291666667 0.125 -0.166666667
-0.341506351 0.25 -0.166666667
-0.25 0.25 -0.166666667
-0.5 0 -0.5
-0.333333333 0 -0.5
-0.4 0.1 -0.5
-0.291666667 0.125 -0.5
-0.5 0 -0.166666667
-0.333333333 0 -0.166666667
-0.4 0.1 -0.166666667
-0.291666667 0.125 -0.166666667
-0.433012702 0.25 -0.5
-0.5 0 -0.5
-0.341506351 0.25 -0.5
-0.4 0.1 -0.5
-0.433012702 0.25 -0.166666667
-0.5 0 -0.166666667
-0.341506351 0.25 -0.166666667
-0.4 0.1 -0.166666667
-0.25 0.359807621 -0.5
-0.341506351 0.25 -0.5
-0.125 0.375 -0.5
-0.25 0.25 -0.5
-0.25 0.359807621 -0.166666667
-0.341506351 0.25 -0.166666667
-0.125 0.375 -0.166666667
-0.25 0.25 -0.166666667
-0.25 0.433012702 -0.5
-0.433012702 0.25 -0.5
-0.25 0.359807621 -0.5
-0.341506351 0.25 -0.5
-0.25 0.433012702 -0.166666667
-0.433012702 0.25 -0.166666667
-0.25 0.359807621 -0.166666667
-0.341506351 0.25 -0.166666667
0 0.5 -0.5
-0.25 0.433012702 -0.5
-0.125 0.375 -0.5
-0.25 0.359807621 -0.5
0 0.5 -0.166666667
-0.25 0.433012702 -0.166666667
-0.125 0.375 -0.166666667
-0.25 0.359807621 -0.166666667
-0.1 0.25 -0.5
-0.125 0.375 -0.5
-0.125 0.125 -0.5
-0.25 0.25 -0.5
-0.1 0.25 -0.166666667
-0.125 0.375 -0.166666667
-0.125 0.125 -0.166666667
-0.25 0.25 -0.166666667
0 0.25 -0.5
0 0.5 -0.5
-0.1 0.25 -0.5
-0.125 0.375 -0.5
0 0.25 -0.166666667
0 0.5 -0.166666667
-0.1 0.25 -0.166666667
-0.125 0.375 -0.166666667
0 0 -0.5
0 0.25 -0.5
-0.125 0.125 -0.5
-0.1 0.25 -0.5
0 0 -0.166666667
0 0.25 -0.166666667
-0.125 0.125 -0.166666667
-0.1 0.25 -0.166666667
-0.2 0.1 -0.5
-0.125 0.125 -0.5
-0.291666667 0.125 -0.5
-0.25 0.25 -0.5
-0.2 0.1 -0.166666667
-0.125 0.125 -0.166666667
-0.291666667 0.125 -0.166666667
-0.25 0.25 -0.166666667
-0.166666667 0 -0.5
0 0 -0.5
-0.2 0.1 -0.5
-0.125 0.125 -0.5
-0.166666667 0 -0.166666667
0 0 -0.166666667
-0.2 0.1 -0.166666667
-0.125 0.125 -0.166666667
-0.333333333 0 -0.5
-0.166666667 0 -0.5
-0.291666667 0.125 -0.5
-0.2 0.1 -0.5
-0.333333333 0 -0.166666667
-0.166666667 0 -0.166666667
-0.291666667 0.125 -0.166666667
-0.2 0.1 -0.166666667
0.1 0.1 0.166666667
0.208333333 0.125 0.166666667
0.125 0.25 0.166666667
0.25 0.25 0.166666667
0.1 0.1 0.5
0.208333333 0.125 0.5
0.125 0.25 0.5
0.25 0.25 0.5
0 0 0.166666667
0.166666667 0 0.166666667
0.1 0.1 0.166666667
0.208333333 0.125 0.166666667
0 0 0.5
0.166666667 0 0.5
0.1 0.1 0.5
0.208333333 0.125 0.5
0 0.25 0.166666667
0 0 0.166666667
0.125 0.25 0.166666667
0.1 0.1 0.166666667
0 0.25 0.5
0 0 0.5
0.125 0.25 0.5
0.1 0.1 0.5
0.1 0.4 0.166666667
0.125 0.25 0.166666667
0.25 0.341506351 0.166666667
0.25 0.25 0.166666667
0.1 0.4 0.5
0.125 0.25 0.5
0.25 0.341506351 0.5
0.25 0.25 0.5
0 0.5 0.166666667
0 0.25 0.166666667
0.1 0.4 0.166666667
0.125 0.25 0.166666667
0 0.5 0.5
0 0.25 0.5
0.1 0.4 0.5
0.125 0.25 0.5
0.25 0.433012702 0.166666667
0 0.5 0.166666667
0.25 0.341506351 0.166666667
0.1 0.4 0.166666667
0.25 0.433012702 0.5
0 0.5 0.5
0.25 0.341506351 0.5
0.1 0.4 0.5
0.359807621 0.25 0.166666667
0.25 0.341506351 0.166666667
0.375 0.125 0.166666667
0.25 0.25 0.166666667
0.359807621 0.25 0.5
0.25 0.341506351 0.5
0.375 0.125 0.5
0.25 0.25 0.5
0.433012702 0.25 0.166666667
0.25 0.433012702 0.166666667
0.359807621 0.25 0.166666667
0.25 0.341506351 0.166666667
0.433012702 0.25 0.5
0.25 0.433012702 0.5
0.359807621 0.25 0.5
0.25 0.341506351 0.5
0.5 0 0.166666667
0.433012702 0.25 0.166666667
0.375 0.125 0.166666667
0.359807621 0.25 0.166666667
0.5 0 0.5
0.433012702 0.25 0.5
0.375 0.125 0.5
0.359807621 0.25 0.5
0.3 0.1 0.166666667
0.375 0.125 0.166666667
0.208333333 0.125 0.166666667
0.25 0.25 0.166666667
0.3 0.1 0.5
0.375 0.125 0.5
0.208333333 0.125 0.5
0.25 0.25 0.5
0.333333333 0 0.166666667
0.5 0 0.166666667
0.3 0.1 0.166666667
0.375 0.125 0.166666667
0.333333333 0 0.5
0.5 0 0.5
0.3 0.1 0.5
0.375 0.125 0.5
0.166666667 0 0.166666667
0.333333333 0 0.166666667
0.208333333 0.125 0.166666667
0.3 0.1 0.166666667
0.166666667 0 0.5
0.333333333 0 0.5
0.208333333 0.125 0.5
0.3 0.1 0.5
0.1 0.1 -0.166666667
0.208333333 0.125 -0.166666667
0.125 0.25 -0.166666667
0.25 0.25 -0.166666667
0.1 0.1 0.166666667
0.208333333 0.125 0.166666667
0.125 0.25 0.166666667
0.25 0.25 0.166666667
0 0 -0.166666667
0.166666667 0 -0.166666667
0.1 0.1 -0.166666667
0.208333333 0.125 -0.166666667
0 0 0.166666667
0.166666667 0 0.166666667
0.1 0.1 0.166666667
0.208333333 0.125 0.166666667
0 0.25 -0.166666667
0 0 -0.166666667
0.125 0.25 -0.166666667
0.1 0.1 -0.166666667
0 0.25 0.166666667
0 0 0.166666667
0.125 0.25 0.166666667
0.1 0.1 0.166666667
0.1 0.4 -0.166666667
0.125 0.25 -0.166666667
0.25 0.341506351 -0.166666667
0.25 0.25 -0.166666667
0.1 0.4 0.166666667
0.125 0.25 0.166666667
0.25 0.341506351 0.166666667
0.25 0.25 0.166666667
0 0.5 -0.166666667
0 0.25 -0.166666667
0.1 0.4 -0.166666667
0.125 0.25 -0.166666667
0 0.5 0.166666667
0 0.25 0.166666667
0.1 0.4 0.166666667
0.125 0.25 0.166666667
0.25 0.433012702 -0.166666667
0 0.5 -0.166666667
0.25 0.341506351 -0.166666667
0.1 0.4 -0.166666667
0.25 0.433012702 0.166666667
0 0.5 0.166666667
0.25 0.341506351 0.166666667
0.1 0.4 0.166666667
0.359807621 0.25 -0.166666667
0.25 0.341506351 -0.166666667
0.375 0.125 -0.166666667
0.25 0.25 -0.166666667
0.359807621 0.25 0.166666667
0.25 0.341506351 0.166666667
0.375 0.125 0.166666667
0.25 0.25 0.166666667
0.433012702 0.25 -0.166666667
0.25 0.433012702 -0.166666667
[...]
<CellData Scalars="attribute">
<DataArray type="Int32" Name="attribute" format="ascii">
1
1
1
1
1
1
1
1
1
1
1
1
1
1
1
1
1
1
1
1
1
1
1
1
1
1
1
1
1
1
1
1
1
1
1
1
1
1
1
1
1
1
1
1
1
1
1
1
1
1
1
1
1
1
1
1
1
1
1
1
1
1
1
1
1
1
1
1
1
1
1
1
1
1
1
1
1
1
1
1
1
1
1
1
1
1
1
1
1
1
1
1
1
1
1
1
1
1
1
1
1
1
1
1
1
1
1
1
1
1
1
1
1
1
1
1
1
1
1
1
1
1
1
1
1
1
1
1
1
1
1
1
1
1
1
1
1
1
1
1
1
1
1
1
2
2
2
2
2
2
2
2
2
2
2
2
2
2
2
2
2
2
2
2
2
2
2
2
2
2
2
2
2
2
2
2
2
2
2
2
2
2
2
2
2
2
2
2
2
2
2
2
2
2
2
2
2
2
2
2
2
2
2
2
2
2
2
2
2
2
2
2
2
2
2
2
2
2
2
2
2
2
2
2
2
2
2
2
2
2
2
2
2
2
2
2
2
2
2
2
2
2
2
2
2
2
2
2
2
2
2
2
</DataArray>
</CellData>
<PointData >
<DataArray type="Float64" Name="a_field" NumberOfComponents="3" ComponentName0="0" ComponentName1="1" ComponentName2="2" format="ascii" >
0.000994313454 -0.000170257942 0.0990602592 
0.000880262941 0.000323960949 0.116347503 
0.00161749705 -0.000413273158 0.0978725142 
0.00161749705 7.82162469e-05 0.110297361 
0 0 0.0990602592 
0 0 0.116347503 
0 0 0.0978725142 
0 0 0.110297361 
0.00568055171 0.0101826078 0.0847610421 
0.00568055171 0.00405062814 0.116045533 
-0.00351741774 0.0193805772 0.0990602592 
-0.000451427922 0.00609462135 0.116347503 
0 0 0.0847610421 
0 0 0.116045533 
0 0 0.0990602592 
0 0 0.116347503 
0.0146577724 -0.00718315546 0.0824285738 
0.0148903135 0.000972845938 0.0847610421 
0.0146577724 -0.00549842841 0.0978725142 
0.0256468711 -0.00978371166 0.0990602592 
0 0 0.0824285738 
0 0 0.0847610421 
0 0 0.0978725142 
0 0 0.0990602592 
0.000479007211 -0.000305326271 0.0935149237 
0.00161749705 -0.0012540678 0.0978725142 
0.000594316338 -0.0012540678 0.1030259 
0.00161749705 -0.00227724851 0.110297361 
0 0 0.0935149237 
0 0 0.0978725142 
0 0 0.1030259 
0 0 0.110297361 
0.00998462097 -0.0155286757 0.0816973099 
0.0146577724 -0.00761857505 0.0824285738 
0.0187470265 -0.0155286757 0.0935149237 
0.0146577724 -0.0121209639 0.0978725142 
0 0 0.0816973099 
0 0 0.0824285738 
0 0 0.0935149237 
0 0 0.0978725142 
0.000475206677 -0.00907818296 0.0835571974 
0.00937787818 -0.0155286757 0.0816973099 
0.00169329726 -0.0102962735 0.1030259 
0.00232923834 -0.0155286757 0.0935149237 
0 0 0.0835571974 
0 0 0.0816973099 
0 0 0.1030259 
0 0 0.0935149237 
-0.0060045418 -0.00137825031 0.122779104 
-0.000402007933 -0.000257743531 0.1030259 
-0.000402007933 -0.00249875708 0.132814468 
0.000718498841 -0.00137825031 0.110297361 
0 0 0.122779104 
0 0 0.1030259 
0 0 0.132814468 
0 0 0.110297361 
-0.00523001187 -0.00229815437 0.128524597 
-0.00630482192 -0.00229815437 0.0835571974 
-0.00523001187 -0.00122334432 0.122779104 
-0.00702136195 -0.00158161433 0.1030259 
0 0 0.128524597 
0 0 0.0835571974 
0 0 0.122779104 
0 0 0.1030259 
-0.00843936238 0.00167619422 0.147633161 
-0.00523001187 0.00167619422 0.128524597 
-0.0105789294 -0.000463372789 0.132814468 
-0.00523001187 -0.00153315629 0.122779104 
0 0 0.147633161 
0 0 0.128524597 
0 0 0.132814468 
0 0 0.122779104 
0.00203559831 -0.00568356896 0.127550286 
0.000629993776 -0.00146675537 0.132814468 
0.00344120284 -0.000529685683 0.116347503 
0.00203559831 -6.11508393e-05 0.110297361 
0 0 0.127550286 
0 0 0.132814468 
0 0 0.116347503 
0 0 0.110297361 
-0.00289080828 0.00675702269 0.135959948 
-0.00289080828 0.00722474831 0.147633161 
-0.00218921985 0.0069908855 0.127550286 
-0.00242308266 0.00769247394 0.132814468 
0 0 0.135959948 
0 0 0.147633161 
0 0 0.127550286 
0 0 0.132814468 
0.00179784818 0.00534486265 0.116045533 
0.00179784818 0.00831990817 0.135959948 
0.0047728937 0.00435318081 0.116347503 
0.00626041646 0.00980743094 0.127550286 
0 0 0.116045533 
0 0 0.135959948 
0 0 0.116347503 
0 0 0.127550286 
-0.00702622309 -0.00844984154 0.0998939536 
-0.00993710161 0.00416396538 0.120719223 
0.00887911293 -0.0146522492 0.10393734 
0.00887911293 -0.00210810614 0.114812769 
0.000994313454 -0.000170257942 0.0998939536 
0.000880262941 0.000323960949 0.120719223 
0.00161749705 -0.000413273158 0.10393734 
0.00161749705 7.82162469e-05 0.114812769 
-0.000477633711 0.0198547701 0.0818899817 
-0.000477633711 0.00851840368 0.119093841 
-0.0174821834 0.0368593198 0.0998939536 
-0.0118140002 0.0122971925 0.120719223 
0.00568055171 0.0101826078 0.0818899817 
0.00568055171 0.00405062814 0.119093841 
-0.00351741774 0.0193805772 0.0998939536 
-0.000451427922 0.00609462135 0.120719223 
0.00948068309 -0.00803685027 0.0830483517 
0.0217442917 -0.0023671553 0.0818899817 
0.00948068309 -0.0148868361 0.10393734 
0.0501062066 -0.0307290701 0.0998939536 
0.0146577724 -0.00718315546 0.0830483517 
0.0148903135 0.000972845938 0.0818899817 
0.0146577724 -0.00549842841 0.10393734 
0.0256468711 -0.00978371166 0.0998939536 
0.00752481454 -0.0041201406 0.0989331429 
0.00887911293 -0.00524872259 0.10393734 
0.0076619813 -0.00524872259 0.106141521 
0.00887911293 -0.00646585421 0.114812769 
0.000479007211 -0.000305326271 0.0989331429 
0.00161749705 -0.0012540678 0.10393734 
0.000594316338 -0.0012540678 0.106141521 
0.00161749705 -0.00227724851 0.114812769 
0.00820216119 -0.0128637689 0.083119941 
0.00948068309 -0.00482798296 0.0830483517 
0.0180171686 -0.0128637689 0.0989331429 
0.00948068309 -0.00575003106 0.10393734 
0.00998462097 -0.0155286757 0.083119941 
0.0146577724 -0.00761857505 0.0830483517 
0.0187470265 -0.0155286757 0.0989331429 
0.0146577724 -0.0121209639 0.10393734 
0.00133056469 -0.0131615385 0.0846572019 
0.0088194807 -0.0128637689 0.083119941 
0.00963273502 -0.0214637088 0.106141521 
0.00858750666 -0.0128637689 0.0989331429 
0.000475206677 -0.00907818296 0.0846572019 
0.00937787818 -0.0155286757 0.083119941 
0.00169329726 -0.0102962735 0.106141521 
0.00232923834 -0.0155286757 0.0989331429 
0.0100337401 -0.000253683986 0.12518007 
0.00389474226 -0.00148148354 0.106141521 
0.00389474226 0.000974115573 0.137807202 
0.0026669427 -0.000253683986 0.114812769 
-0.0060045418 -0.00137825031 0.12518007 
-0.000402007933 -0.000257743531 0.106141521 
-0.000402007933 -0.00249875708 0.137807202 
0.000718498841 -0.00137825031 0.114812769 
-0.00742317576 -0.0040764326 0.130014508 
-0.00775454121 -0.0040764326 0.0846572019 
-0.00742317576 -0.00374506715 0.12518007 
-0.00797545151 -0.0038555223 0.106141521 
-0.00523001187 -0.00229815437 0.130014508 
-0.00630482192 -0.00229815437 0.0846572019 
-0.00523001187 -0.00122334432 0.12518007 
-0.00702136195 -0.00158161433 0.106141521 
-0.00674010326 0.00255462668 0.148524751 
-0.00742317576 0.00255462668 0.130014508 
-0.0062847216 0.00301000834 0.137807202 
-0.00742317576 0.00323769918 0.12518007 
-0.00843936238 0.00167619422 0.148524751 
-0.00523001187 0.00167619422 0.130014508 
-0.0105789294 -0.000463372789 0.137807202 
-0.00523001187 -0.00153315629 0.12518007 
0.00282916865 0.0476980709 0.136693455 
0.0147765509 0.0118559242 0.137807202 
-0.00911821359 0.0038910027 0.120719223 
0.00282916865 -9.14580424e-05 0.114812769 
0.00203559831 -0.00568356896 0.136693455 
0.000629993776 -0.00146675537 0.137807202 
0.00344120284 -0.000529685683 0.120719223 
0.00203559831 -6.11508393e-05 0.114812769 
0.00409805345 0.00576812512 0.141791374 
0.00409805345 0.0133927834 0.148524751 
0.0155350409 0.00958045426 0.136693455 
0.0117227117 0.0210174417 0.137807202 
-0.00289080828 0.00675702269 0.141791374 
-0.00289080828 0.00722474831 0.148524751 
-0.00218921985 0.0069908855 0.136693455 
-0.00242308266 0.00769247394 0.137807202 
-0.00197053793 0.00901603842 0.119093841 
-0.00197053793 0.00374526133 0.141791374 
-0.00724131502 0.0107729641 0.120719223 
-0.00987670357 0.00110987278 0.136693455 
0.00179784818 0.00534486265 0.119093841 
0.00179784818 0.00831990817 0.141791374 
0.0047728937 0.00435318081 0.120719223 
0.00626041646 0.00980743094 0.136693455 
0 0 0.116314783 
0 0 0.130995148 
0 0 0.110189508 
0 0 0.125495875 
-0.00702622309 -0.00844984154 0.116314783 
-0.00993710161 0.00416396538 0.130995148 
0.00887911293 -0.0146522492 0.110189508 
0.00887911293 -0.00210810614 0.125495875 
0 0 0.0914434771 
0 0 0.125329427 
0 0 0.116314783 
0 0 0.130995148 
-0.000477633711 0.0198547701 0.0914434771 
-0.000477633711 0.00851840368 0.125329427 
-0.0174821834 0.0368593198 0.116314783 
-0.0118140002 0.0122971925 0.130995148 
0 0 0.0881191016 
0 0 0.0914434771 
0 0 0.110189508 
0 0 0.116314783 
0.00948068309 -0.00803685027 0.0881191016 
0.0217442917 -0.0023671553 0.0914434771 
0.00948068309 -0.0148868361 0.110189508 
0.0501062066 -0.0307290701 0.116314783 
0 0 0.106571269 
0 0 0.110189508 
0 0 0.118881978 
0 0 0.125495875 
0.00752481454 -0.0041201406 0.106571269 
0.00887911293 -0.00524872259 0.110189508 
0.0076619813 -0.00524872259 0.118881978 
0.00887911293 -0.00646585421 0.125495875 
0 0 0.0885182416 
0 0 0.0881191016 
0 0 0.106571269 
0 0 0.110189508 
0.00820216119 -0.0128637689 0.0885182416 
0.00948068309 -0.00482798296 0.0881191016 
0.0180171686 -0.0128637689 0.106571269 
0.00948068309 -0.00575003106 0.110189508 
0 0 0.0917505445 
0 0 0.0885182416 
0 0 0.118881978 
0 0 0.106571269 
0.00133056469 -0.0131615385 0.0917505445 
0.0088194807 -0.0128637689 0.0885182416 
0.00963273502 -0.0214637088 0.118881978 
0.00858750666 -0.0128637689 0.106571269 
0 0 0.139549347 
0 0 0.118881978 
0 0 0.149894497 
0 0 0.125495875 
0.0100337401 -0.000253683986 0.139549347 
0.00389474226 -0.00148148354 0.118881978 
0.00389474226 0.000974115573 0.149894497 
0.0026669427 -0.000253683986 0.125495875 
0 0 0.141498884 
0 0 0.0917505445 
0 0 0.139549347 
0 0 0.118881978 
-0.00742317576 -0.0040764326 0.141498884 
-0.00775454121 -0.0040764326 0.0917505445 
-0.00742317576 -0.00374506715 0.139549347 
-0.00797545151 -0.0038555223 0.118881978 
0 0 0.157434333 
0 0 0.141498884 
0 0 0.149894497 
0 0 0.139549347 
-0.00674010326 0.00255462668 0.157434333 
-0.00742317576 0.00255462668 0.141498884 
-0.0062847216 0.00301000834 0.149894497 
-0.00742317576 0.00323769918 0.139549347 
0 0 0.140384655 
0 0 0.149894497 
0 0 0.130995148 
0 0 0.125495875 
0.00282916865 0.0476980709 0.140384655 
0.0147765509 0.0118559242 0.149894497 
-0.00911821359 0.0038910027 0.130995148 
0.00282916865 -9.14580424e-05 0.125495875 
0 0 0.145157497 
0 0 0.157434333 
0 0 0.140384655 
0 0 0.149894497 
0.00409805345 0.00576812512 0.145157497 
0.00409805345 0.0133927834 0.157434333 
0.0155350409 0.00958045426 0.140384655 
0.0117227117 0.0210174417 0.149894497 
0 0 0.125329427 
0 0 0.145157497 
0 0 0.130995148 
0 0 0.140384655 
-0.00197053793 0.00901603842 0.125329427 
-0.00197053793 0.00374526133 0.145157497 
-0.00724131502 0.0107729641 0.130995148 
-0.00987670357 0.00110987278 0.140384655 
0.00127178321 -0.000329375203 0.137260275 
0.00121577507 -8.66732362e-05 0.127767344 
0.0014958158 -0.000366713967 0.12404123 
0.0014958158 -0.000180020147 0.111419422 
0 0 0.137260275 
0 0 0.127767344 
0 0 0.12404123 
0 0 0.111419422 
0.00185096393 0.00264356773 0.147633161 
0.00185096393 0.00154702252 0.136479871 
0.000206146121 0.00428838553 0.137260275 
0.000754418723 0.00191253759 0.127767344 
0 0 0.147633161 
0 0 0.136479871 
0 0 0.137260275 
0 0 0.127767344 
0.000102343288 0.00167619422 0.128524597 
0.00281833744 0.00167619422 0.147633161 
0.000102343288 -0.000134468549 0.12404123 
0.00553433159 -0.00103979993 0.137260275 
0 0 0.128524597 
0 0 0.147633161 
0 0 0.12404123 
0 0 0.137260275 
0.0011221033 -0.000901795943 0.100650154 
0.0014958158 -0.000839510526 0.12404123 
0.000923029609 -0.00141229672 0.0990163215 
0.0014958158 -0.00141229672 0.111419422 
0 0 0.100650154 
0 0 0.12404123 
0 0 0.0990163215 
0 0 0.111419422 
0.00194194092 -0.00229815437 0.0835571974 
0.000102343288 -0.00229815437 0.128524597 
0.00378153855 -0.000458556734 0.100650154 
0.000102343288 -0.00107175594 0.12404123 
0 0 0.0835571974 
0 0 0.128524597 
0 0 0.100650154 
0 0 0.12404123 
0.00391239785 0.00117697039 0.0791568106 
0.00280643939 -0.0014336559 0.0835571974 
0.00193273415 0.00117697039 0.0990163215 
-0.000294556778 -0.00453465207 0.100650154 
0 0 0.0791568106 
0 0 0.0835571974 
0 0 0.0990163215 
0 0 0.100650154 
0.00559617142 -0.0011080754 0.0925143574 
0.00534265366 -0.00141229672 0.0990163215 
0.00534265366 -0.00113888771 0.101654274 
0.00506924465 -0.00141229672 0.111419422 
0 0 0.0925143574 
0 0 0.0990163215 
0 0 0.101654274 
0 0 0.111419422 
-0.00356743791 -0.00358139475 0.0781058906 
0.00218739609 0.00117697039 0.0791568106 
-0.00356743791 -0.0121044066 0.0925143574 
0.00750037625 0.00117697039 0.0990163215 
0 0 0.0781058906 
0 0 0.0791568106 
0 0 0.0925143574 
0 0 0.0990163215 
-0.00472148668 0.000701220785 0.0802137283 
-0.00356743791 -0.00120780902 0.0781058906 
-0.0082086016 -0.00278589414 0.101654274 
-0.00356743791 -0.0022218116 0.0925143574 
0 0 0.0802137283 
0 0 0.0781058906 
0 0 0.101654274 
0 0 0.0925143574 
0.00510009486 -3.21740249e-05 0.115715856 
0.00543741298 -0.00104412838 0.101654274 
0.00476277674 -0.00126900713 0.127767344 
0.00510009486 -0.0013814465 0.111419422 
0 0 0.115715856 
0 0 0.101654274 
0 0 0.127767344 
0 0 0.111419422 
0.000396854827 0.00375506634 0.114536922 
0.000396854827 0.00581956229 0.0802137283 
0.00349359875 0.00478731431 0.115715856 
0.00246135078 0.00788405824 0.101654274 
0 0 0.114536922 
0 0 0.0802137283 
0 0 0.115715856 
0 0 0.101654274 
0.00225921731 0.00141093806 0.136479871 
0.00225921731 0.00437585383 0.114536922 
0.00522413309 0.000422632801 0.127767344 
0.00670659098 0.00585831172 0.115715856 
0 0 0.136479871 
0 0 0.114536922 
0 0 0.127767344 
0 0 0.115715856 
0.00421002998 -0.0122330323 0.141690855 
0.00228322039 -0.00388352407 0.132524394 
0.0119172683 -0.013517572 0.133555252 
0.0119172683 -0.00709487337 0.11758633 
0.00127178321 -0.000329375203 0.141690855 
0.00121577507 -8.66732362e-05 0.132524394 
0.0014958158 -0.000366713967 0.133555252 
0.0014958158 -0.000180020147 0.11758633 
-0.00177365906 -0.00103390975 0.148524751 
-0.00177365906 0.00191212958 0.140109254 
0.00264539994 -0.00545296875 0.141690855 
0.00117238027 0.00093011647 0.132524394 
0.00185096393 0.00264356773 0.148524751 
0.00185096393 0.00154702252 0.140109254 
0.000206146121 0.00428838553 0.141690855 
0.000754418723 0.00191253759 0.132524394 
-0.0211929411 0.00255462668 0.130014508 
-0.00536219549 0.00255462668 0.148524751 
-0.0211929411 -0.00799920374 0.133555252 
0.0104685501 -0.013276119 0.141690855 
0.000102343288 0.00167619422 0.130014508 
0.00281833744 0.00167619422 0.148524751 
0.000102343288 -0.000134468549 0.133555252 
0.00553433159 -0.00103979993 0.141690855 
0.00497803582 0.00568606177 0.106998869 
0.0119172683 0.00684260052 0.133555252 
0.00128156171 -0.00379310608 0.105449105 
0.0119172683 -0.00379310608 0.11758633 
0.0011221033 -0.000901795943 0.106998869 
0.0014958158 -0.000839510526 0.133555252 
0.000923029609 -0.00141229672 0.105449105 
0.0014958158 -0.00141229672 0.11758633 
-0.0130919438 -0.0040764326 0.0846572019 
-0.0211929411 -0.0040764326 0.130014508 
-0.00499094648 0.00402456472 0.106998869 
-0.0211929411 0.00132423228 0.133555252 
0.00194194092 -0.00229815437 0.0846572019 
0.000102343288 -0.00229815437 0.130014508 
0.00378153855 -0.000458556734 0.106998869 
0.000102343288 -0.00107175594 0.133555252 
-0.0010872603 0.00104674784 0.0859484434 
-0.00143048992 0.00758502129 0.0846572019 
0.00316889982 0.00104674784 0.105449105 
0.0102884337 0.0193039449 0.106998869 
0.00391239785 0.00117697039 0.0859484434 
0.00280643939 -0.0014336559 0.0846572019 
0.00193273415 0.00117697039 0.105449105 
-0.000294556778 -0.00453465207 0.106998869 
0.00839319454 -0.00282180342 0.0997029811 
0.00758377565 -0.00379310608 0.105449105 
0.00758377565 -0.0029201794 0.108743356 
0.00671084897 -0.00379310608 0.11758633 
0.00559617142 -0.0011080754 0.0997029811 
0.00534265366 -0.00141229672 0.105449105 
0.00534265366 -0.00113888771 0.108743356 
0.00506924465 -0.00141229672 0.11758633 
-0.0183771095 -0.00958669958 0.0877634801 
-0.000519482918 0.00104674784 0.0859484434 
-0.0183771095 -0.0349461682 0.0997029811 
0.0116169873 0.00104674784 0.105449105 
-0.00356743791 -0.00358139475 0.0877634801 
0.00218739609 0.00117697039 0.0859484434 
-0.00356743791 -0.0121044066 0.0997029811 
0.00750037625 0.00117697039 0.105449105 
-0.013749159 -0.000861301343 0.0880687254 
-0.0183771095 -0.0114273578 0.0877634801 
-0.0190443997 -0.00615654203 0.108743356 
-0.0183771095 -0.00607544022 0.0997029811 
-0.00472148668 0.000701220785 0.0880687254 
-0.00356743791 -0.00120780902 0.0877634801 
-0.0082086016 -0.00278589414 0.108743356 
-0.00356743791 -0.0022218116 0.0997029811 
0.00553612834 0.0362495471 0.124479065 
0.0158404718 0.00533651673 0.108743356 
-0.00476821511 -0.00153304557 0.132524394 
0.00553612834 -0.00496782672 0.11758633 
0.00510009486 -3.21740249e-05 0.124479065 
0.00543741298 -0.00104412838 0.108743356 
0.00476277674 -0.00126900713 0.132524394 
0.00510009486 -0.0013814465 0.11758633 
-0.00237085091 -0.0018463628 0.120809639 
-0.00237085091 0.0105170067 0.0880687254 
0.0161742034 0.00433532196 0.124479065 
0.00999251861 0.0228803763 0.108743356 
0.000396854827 0.00375506634 0.120809639 
0.000396854827 0.00581956229 0.0880687254 
0.00349359875 0.00478731431 0.124479065 
0.00246135078 0.00788405824 0.108743356 
-0.000768231561 0.00157698708 0.140109254 
-0.000768231561 -0.00131215635 0.120809639 
-0.00365737499 0.00254003489 0.132524394 
-0.0051019467 -0.00275672806 0.124479065 
0.00225921731 0.00141093806 0.140109254 
0.00225921731 0.00437585383 0.120809639 
0.00522413309 0.000422632801 0.132524394 
0.00670659098 0.00585831172 0.124479065 
0 0 0.147567536 
0 0 0.138914013 
0 0 0.129106544 
0 0 0.121514641 
0.00421002998 -0.0122330323 0.147567536 
0.00228322039 -0.00388352407 0.138914013 
0.0119172683 -0.013517572 0.129106544 
0.0119172683 -0.00709487337 0.121514641 
0 0 0.157434333 
0 0 0.146319695 
0 0 0.147567536 
0 0 0.138914013 
-0.00177365906 -0.00103390975 0.157434333 
-0.00177365906 0.00191212958 0.146319695 
0.00264539994 -0.00545296875 0.147567536 
0.00117238027 0.00093011647 0.138914013 
0 0 0.141498884 
0 0 0.157434333 
0 0 0.129106544 
0 0 0.147567536 
-0.0211929411 0.00255462668 0.141498884 
-0.00536219549 0.00255462668 0.157434333 
-0.0211929411 -0.00799920374 0.129106544 
0.0104685501 -0.013276119 0.147567536 
0 0 0.107410877 
0 0 0.129106544 
0 0 0.107682559 
0 0 0.121514641 
0.00497803582 0.00568606177 0.107410877 
0.0119172683 0.00684260052 0.129106544 
0.00128156171 -0.00379310608 0.107682559 
0.0119172683 -0.00379310608 0.121514641 
0 0 0.0917505445 
0 0 0.141498884 
0 0 0.107410877 
0 0 0.129106544 
-0.0130919438 -0.0040764326 0.0917505445 
-0.0211929411 -0.0040764326 0.141498884 
-0.00499094648 0.00402456472 0.107410877 
-0.0211929411 0.00132423228 0.129106544 
0 0 0.0884335011 
0 0 0.0917505445 
0 0 0.107682559 
0 0 0.107410877 
-0.0010872603 0.00104674784 0.0884335011 
-0.00143048992 0.00758502129 0.0917505445 
0.00316889982 0.00104674784 0.107682559 
0.0102884337 0.0193039449 0.107410877 
0 0 0.106867838 
0 0 0.107682559 
0 0 0.118119055 
0 0 0.121514641 
0.00839319454 -0.00282180342 0.106867838 
0.00758377565 -0.00379310608 0.107682559 
0.00758377565 -0.0029201794 0.118119055 
0.00671084897 -0.00379310608 0.121514641 
0 0 0.0876400146 
0 0 0.0884335011 
0 0 0.106867838 
0 0 0.107682559 
-0.0183771095 -0.00958669958 0.0876400146 
-0.000519482918 0.00104674784 0.0884335011 
-0.0183771095 -0.0349461682 0.106867838 
0.0116169873 0.00104674784 0.107682559 
0 0 0.0898120472 
0 0 0.0876400146 
0 0 0.118119055 
0 0 0.106867838 
-0.013749159 -0.000861301343 0.0898120472 
-0.0183771095 -0.0114273578 0.0876400146 
-0.0190443997 -0.00615654203 0.118119055 
-0.0183771095 -0.00607544022 0.106867838 
0 0 0.127071183 
0 0 0.118119055 
0 0 0.138914013 
0 0 0.121514641 
0.00553612834 0.0362495471 0.127071183 
0.0158404718 0.00533651673 0.118119055 
-0.00476821511 -0.00153304557 0.138914013 
0.00553612834 -0.00496782672 0.121514641 
0 0 0.125122239 
0 0 0.0898120472 
0 0 0.127071183 
0 0 0.118119055 
-0.00237085091 -0.0018463628 0.125122239 
-0.00237085091 0.0105170067 0.0898120472 
0.0161742034 0.00433532196 0.127071183 
0.00999251861 0.0228803763 0.118119055 
0 0 0.146319695 
0 0 0.125122239 
0 0 0.138914013 
0 0 0.127071183 
-0.000768231561 0.00157698708 0.146319695 