<VTKFile type="UnstructuredGrid" version="2.2" byte_order="LittleEndian">
<UnstructuredGrid>
<Piece NumberOfPoints="100" NumberOfCells="25">
<Points>
<DataArray type="Float64" NumberOfComponents="3" format="ascii">
0 0 0
0.1 0 0
0 0.1 0
0.1 0.1 0
0.1 0 0
0.2 0 0
0.1 0.1 0
0.2 0.1 0
0.2 0 0
0.3 0 0
0.2 0.1 0
0.3 0.1 0
0.3 0 0
0.4 0 0
0.3 0.1 0
0.4 0.1 0
0.4 0 0
0.5 0 0
0.4 0.1 0
0.5 0.1 0
0 0.1 0
0.1 0.1 0
0 0.2 0
0.1 0.2 0
0.1 0.1 0
0.2 0.1 0
0.1 0.2 0
0.2 0.2 0
0.2 0.1 0
0.3 0.1 0
0.2 0.2 0
0.3 0.2 0
0.3 0.1 0
0.4 0.1 0
0.3 0.2 0
0.4 0.2 0
0.4 0.1 0
0.5 0.1 0
0.4 0.2 0
0.5 0.2 0
0 0.2 0
0.1 0.2 0
0 0.3 0
0.1 0.3 0
0.1 0.2 0
0.2 0.2 0
0.1 0.3 0
0.2 0.3 0
0.2 0.2 0
0.3 0.2 0
0.2 0.3 0
0.3 0.3 0
0.3 0.2 0
0.4 0.2 0
0.3 0.3 0
0.4 0.3 0
0.4 0.2 0
0.5 0.2 0
0.4 0.3 0
0.5 0.3 0
0 0.3 0
0.1 0.3 0
0 0.4 0
0.1 0.4 0
0.1 0.3 0
0.2 0.3 0
0.1 0.4 0
0.2 0.4 0
0.2 0.3 0
0.3 0.3 0
0.2 0.4 0
0.3 0.4 0
0.3 0.3 0
0.4 0.3 0
0.3 0.4 0
0.4 0.4 0
0.4 0.3 0
0.5 0.3 0
0.4 0.4 0
0.5 0.4 0
0 0.4 0
0.1 0.4 0
0 0.5 0
0.1 0.5 0
0.1 0.4 0
0.2 0.4 0
0.1 0.5 0
0.2 0.5 0
0.2 0.4 0
0.3 0.4 0
0.2 0.5 0
0.3 0.5 0
0.3 0.4 0
0.4 0.4 0
0.3 0.5 0
0.4 0.5 0
0.4 0.4 0
0.5 0.4 0
0.4 0.5 0
0.5 0.5 0
</DataArray>
</Points>
<Cells>
<DataArray type="Int32" Name="connectivity" format="ascii">
0 1 3 2 
4 5 7 6 
8 9 11 10 
12 13 15 14 
16 17 19 18 
20 21 23 22 
24 25 27 26 
28 29 31 30 
32 33 35 34 
36 37 39 38 
40 41 43 42 
44 45 47 46 
48 49 51 50 
52 53 55 54 
56 57 59 58 
60 61 63 62 
64 65 67 66 
68 69 71 70 
72 73 75 74 
76 77 79 78 
80 81 83 82 
84 85 87 86 
88 89 91 90 
92 93 95 94 
96 97 99 98 
</DataArray>
<DataArray type="Int32" Name="offsets" format="ascii">
4
8
12
16
20
24
28
32
36
40
44
48
52
56
60
64
68
72
76
80
84
88
92
96
100
</DataArray>
<DataArray type="UInt8" Name="types" format="ascii">
9
9
9
9
9
9
9
9
9
9
9
9
9
9
9
9
9
9
9
9
9
9
9
9
9
</DataArray>
</Cells>
<CellData Scalars="attribute">
<DataArray type="Int32" Name="attribute" format="ascii">
1
1
1
1
1
1
1
1
1
1
1
1
1
1
1
1
1
1
1
1
1
1
1
1
1
</DataArray>
</CellData>
<PointData >
<DataArray type="Float64" Name="div_heat_flux" NumberOfComponents="1"  format="ascii" >
-28.9826304
-28.9826304
-28.9826304
-28.9826304
-22.7825558
-22.7825558
-22.7825558
-22.7825558
-17.8308404
-17.8308404
-17.8308404
-17.8308404
-13.8561573
-13.8561573
-13.8561573
-13.8561573
-10.6407158
-10.6407158
-10.6407158
-10.6407158
-28.9826304
-28.9826304
-28.9826304
-28.9826304
-22.7825558
-22.7825558
-22.7825558
-22.7825558
-17.8308404
-17.8308404
-17.8308404
-17.8308404
-13.8561573
-13.8561573
-13.8561573
-13.8561573
-10.6407158
-10.6407158
-10.6407158
-10.6407158
-28.9826304
-28.9826304
-28.9826304
-28.9826304
-22.7825558
-22.7825558
-22.7825558
-22.7825558
-17.8308404
-17.8308404
-17.8308404
-17.8308404
-13.8561573
-13.8561573
-13.8561573
-13.8561573
-10.6407158
-10.6407158
-10.6407158
-10.6407158
-28.9826304
-28.9826304
-28.9826304
-28.9826304
-22.7825558
-22.7825558
-22.7825558
-22.7825558
-17.8308404
-17.8308404
-17.8308404
-17.8308404
-13.8561573
-13.8561573
-13.8561573
-13.8561573
-10.6407158
-10.6407158
-10.6407158
-10.6407158
-28.9826304
-28.9826304
-28.9826304
-28.9826304
-22.7825558
-22.7825558
-22.7825558
-22.7825558
-17.8308404
-17.8308404
-17.8308404
-17.8308404
-13.8561573
-13.8561573
-13.8561573
-13.8561573
-10.6407158
-10.6407158
-10.6407158
-10.6407158
</DataArray>
<DataArray type="Float64" Name="dtemperature_dt" NumberOfComponents="1"  format="ascii" >
28.9826304
28.9826304
28.9826304
28.9826304
22.7825558
22.7825558
22.7825558
22.7825558
17.8308404
17.8308404
17.8308404
17.8308404
13.8561573
13.8561573
13.8561573
13.8561573
10.6407158
10.6407158
10.6407158
10.6407158
28.9826304
28.9826304
28.9826304
28.9826304
22.7825558
22.7825558
22.7825558
22.7825558
17.8308404
17.8308404
17.8308404
17.8308404
13.8561573
13.8561573
13.8561573
13.8561573
10.6407158
10.6407158
10.6407158
10.6407158
28.9826304
28.9826304
28.9826304
28.9826304
22.7825558
22.7825558
22.7825558
22.7825558
17.8308404
17.8308404
17.8308404
17.8308404
13.8561573
13.8561573
13.8561573
13.8561573
10.6407158
10.6407158
10.6407158
10.6407158
28.9826304
28.9826304
28.9826304
28.9826304
22.7825558
22.7825558
22.7825558
22.7825558
17.8308404
17.8308404
17.8308404
17.8308404
13.8561573
13.8561573
13.8561573
13.8561573
10.6407158
10.6407158
10.6407158
10.6407158
28.9826304
28.9826304
28.9826304
28.9826304
22.7825558
22.7825558
22.7825558
22.7825558
17.8308404
17.8308404
17.8308404
17.8308404
13.8561573
13.8561573
13.8561573
13.8561573
10.6407158
10.6407158
10.6407158
10.6407158
</DataArray>
<DataArray type="Float64" Name="heat_flux" NumberOfComponents="2" ComponentName0="0" ComponentName1="1" format="ascii" >
14.2133992 0 
11.3151362 0 
14.2133992 4.62987992e-16 
11.3151362 2.35801357e-15 
11.3151362 0 
9.03688058 0 
11.3151362 -2.43742415e-15 
9.03688058 -1.78314165e-15 
9.03688058 0 
7.25379655 0 
9.03688058 -1.50866494e-15 
7.25379655 -1.91447559e-15 
7.25379655 0 
5.86818081 0 
7.25379655 5.54377592e-16 
5.86818081 -3.82495444e-16 
5.86818081 0 
4.80410924 0 
5.86818081 5.98501182e-16 
4.80410924 -7.26792279e-16 
14.2133992 4.62987992e-16 
11.3151362 2.35801357e-15 
14.2133992 -2.38352689e-15 
11.3151362 2.47275138e-15 
11.3151362 -2.43742415e-15 
9.03688058 -1.78314165e-15 
11.3151362 -2.51232752e-15 
9.03688058 1.41336751e-15 
9.03688058 -1.50866494e-15 
7.25379655 -1.91447559e-15 
9.03688058 -1.08595321e-15 
7.25379655 1.76325846e-15 
7.25379655 5.54377592e-16 
5.86818081 -3.82495444e-16 
7.25379655 -4.76410043e-16 
5.86818081 -2.15898936e-15 
5.86818081 5.98501182e-16 
4.80410924 -7.26792279e-16 
5.86818081 -1.08248551e-15 
4.80410924 -1.63833404e-15 
14.2133992 -2.38352689e-15 
11.3151362 2.47275138e-15 
14.2133992 3.06274363e-15 
11.3151362 1.77480162e-15 
11.3151362 -2.51232752e-15 
9.03688058 1.41336751e-15 
11.3151362 5.28277124e-16 
9.03688058 -2.65555447e-15 
9.03688058 -1.08595321e-15 
7.25379655 1.76325846e-15 
9.03688058 1.32307043e-15 
7.25379655 1.56394554e-15 
7.25379655 -4.76410043e-16 
5.86818081 -2.15898936e-15 
7.25379655 1.6642602e-15 
5.86818081 -2.88085142e-15 
5.86818081 -1.08248551e-15 
4.80410924 -1.63833404e-15 
5.86818081 -2.78515887e-18 
4.80410924 -7.12236526e-16 
14.2133992 3.06274363e-15 
11.3151362 1.77480162e-15 
14.2133992 4.34834556e-16 
11.3151362 8.89343611e-16 
11.3151362 5.28277124e-16 
9.03688058 -2.65555447e-15 
11.3151362 -1.24209401e-15 
9.03688058 1.80621527e-15 
9.03688058 1.32307043e-15 
7.25379655 1.56394554e-15 
9.03688058 -2.66024428e-15 
7.25379655 8.15508102e-16 
7.25379655 1.6642602e-15 
5.86818081 -2.88085142e-15 
7.25379655 -4.54831875e-16 
5.86818081 -8.73578143e-16 
5.86818081 -2.78515887e-18 
4.80410924 -7.12236526e-16 
5.86818081 -9.32642767e-17 
4.80410924 -6.24530668e-17 
14.2133992 4.34834556e-16 
11.3151362 8.89343611e-16 
14.2133992 2.62022877e-15 
11.3151362 2.12040578e-15 
11.3151362 -1.24209401e-15 
9.03688058 1.80621527e-15 
11.3151362 -1.78306018e-15 
9.03688058 1.36491892e-15 
9.03688058 -2.66024428e-15 
7.25379655 8.15508102e-16 
9.03688058 8.4810201e-17 
7.25379655 1.26409018e-15 
7.25379655 -4.54831875e-16 
5.86818081 -8.73578143e-16 
7.25379655 -3.5765341e-15 
5.86818081 2.7315929e-15 
5.86818081 -9.32642767e-17 
4.80410924 -6.24530668e-17 
5.86818081 5.69243182e-16 
4.80410924 -1.03919644e-15 
</DataArray>
<DataArray type="Float64" Name="temperature" NumberOfComponents="1"  format="ascii" >
0.869478911
0.869478911
0.869478911
0.869478911
0.683476673
0.683476673
0.683476673
0.683476673
0.534925211
0.534925211
0.534925211
0.534925211
0.41568472
0.41568472
0.41568472
0.41568472
0.319221473
0.319221473
0.319221473
0.319221473
0.869478911
0.869478911
0.869478911
0.869478911
0.683476673
0.683476673
0.683476673
0.683476673
0.534925211
0.534925211
0.534925211
0.534925211
0.41568472
0.41568472
0.41568472
0.41568472
0.319221473
0.319221473
0.319221473
0.319221473
0.869478911
0.869478911
0.869478911
0.869478911
0.683476673
0.683476673
0.683476673
0.683476673
0.534925211
0.534925211
0.534925211
0.534925211
0.41568472
0.41568472
0.41568472
0.41568472
0.319221473
0.319221473
0.319221473
0.319221473
0.869478911
0.869478911
0.869478911
0.869478911
0.683476673
0.683476673
0.683476673
0.683476673
0.534925211
0.534925211
0.534925211
0.534925211
0.41568472
0.41568472
0.41568472
0.41568472
0.319221473
0.319221473
0.319221473
0.319221473
0.869478911
0.869478911
0.869478911
0.869478911
0.683476673
0.683476673
0.683476673
0.683476673
0.534925211
0.534925211
0.534925211
0.534925211
0.41568472
0.41568472
0.41568472
0.41568472
0.319221473
0.319221473
0.319221473
0.319221473
</DataArray>
<DataArray type="Float64" Name="time_integrated_heat_flux" NumberOfComponents="2" ComponentName0="0" ComponentName1="1" format="ascii" >
0.426401976 0 
0.339454085 0 
0.426401976 1.38896397e-17 
0.339454085 7.07404071e-17 
0.339454085 0 
0.271106417 0 
0.339454085 -7.31227246e-17 
0.271106417 -5.34942494e-17 
0.271106417 0 
0.217613896 0 
0.271106417 -4.52599482e-17 
0.217613896 -5.74342677e-17 
0.217613896 0 
0.176045424 0 
0.217613896 1.66313278e-17 
0.176045424 -1.14748633e-17 
0.176045424 0 
0.144123277 0 
0.176045424 1.79550354e-17 
0.144123277 -2.18037684e-17 
0.426401976 1.38896397e-17 
0.339454085 7.07404071e-17 
0.426401976 -7.15058067e-17 
0.339454085 7.41825413e-17 
0.339454085 -7.31227246e-17 
0.271106417 -5.34942494e-17 
0.339454085 -7.53698256e-17 
0.271106417 4.24010253e-17 
0.271106417 -4.52599482e-17 
0.217613896 -5.74342677e-17 
0.271106417 -3.25785964e-17 
0.217613896 5.28977538e-17 
0.217613896 1.66313278e-17 
0.176045424 -1.14748633e-17 
0.217613896 -1.42923013e-17 
0.176045424 -6.47696807e-17 
0.176045424 1.79550354e-17 
0.144123277 -2.18037684e-17 
0.176045424 -3.24745653e-17 
0.144123277 -4.91500211e-17 
0.426401976 -7.15058067e-17 
0.339454085 7.41825413e-17 
0.426401976 9.18823089e-17 
0.339454085 5.32440487e-17 
0.339454085 -7.53698256e-17 
0.271106417 4.24010253e-17 
0.339454085 1.58483137e-17 
0.271106417 -7.96666341e-17 
0.271106417 -3.25785964e-17 
0.217613896 5.28977538e-17 
0.271106417 3.96921129e-17 
0.217613896 4.69183662e-17 
0.217613896 -1.42923013e-17 
0.176045424 -6.47696807e-17 
0.217613896 4.9927806e-17 
0.176045424 -8.64255425e-17 
0.176045424 -3.24745653e-17 
0.144123277 -4.91500211e-17 
0.176045424 -8.35547662e-20 
0.144123277 -2.13670958e-17 
0.426401976 9.18823089e-17 
0.339454085 5.32440487e-17 
0.426401976 1.30450367e-17 
0.339454085 2.66803083e-17 
0.339454085 1.58483137e-17 
0.271106417 -7.96666341e-17 
0.339454085 -3.72628203e-17 
0.271106417 5.4186458e-17 
0.271106417 3.96921129e-17 
0.217613896 4.69183662e-17 
0.271106417 -7.98073284e-17 
0.217613896 2.44652431e-17 
0.217613896 4.9927806e-17 
0.176045424 -8.64255425e-17 
0.217613896 -1.36449563e-17 
0.176045424 -2.62073443e-17 
0.176045424 -8.35547662e-20 
0.144123277 -2.13670958e-17 
0.176045424 -2.7979283e-18 
0.144123277 -1.873592e-18 
0.426401976 1.30450367e-17 
0.339454085 2.66803083e-17 
0.426401976 7.8606863e-17 
0.339454085 6.36121735e-17 
0.339454085 -3.72628203e-17 
0.271106417 5.4186458e-17 
0.339454085 -5.34918053e-17 
0.271106417 4.09475675e-17 
0.271106417 -7.98073284e-17 
0.217613896 2.44652431e-17 
0.271106417 2.54430603e-18 
0.217613896 3.79227054e-17 
0.217613896 -1.36449563e-17 
0.176045424 -2.62073443e-17 
0.217613896 -1.07296023e-16 
0.176045424 8.19477869e-17 
0.176045424 -2.7979283e-18 
0.144123277 -1.873592e-18 
0.176045424 1.70772954e-17 
0.144123277 -3.11758931e-17 
</DataArray>
</PointData>
</Piece>
</UnstructuredGrid>
</VTKFile>
