<VTKFile type="UnstructuredGrid" version="2.2" byte_order="LittleEndian">
<UnstructuredGrid>
<Piece NumberOfPoints="100" NumberOfCells="25">
<Points>
<DataArray type="Float64" NumberOfComponents="3" format="ascii">
0.5 0.5 0
0.6 0.5 0
0.5 0.6 0
0.6 0.6 0
0.6 0.5 0
0.7 0.5 0
0.6 0.6 0
0.7 0.6 0
0.7 0.5 0
0.8 0.5 0
0.7 0.6 0
0.8 0.6 0
0.8 0.5 0
0.9 0.5 0
0.8 0.6 0
0.9 0.6 0
0.9 0.5 0
1 0.5 0
0.9 0.6 0
1 0.6 0
0.5 0.6 0
0.6 0.6 0
0.5 0.7 0
0.6 0.7 0
0.6 0.6 0
0.7 0.6 0
0.6 0.7 0
0.7 0.7 0
0.7 0.6 0
0.8 0.6 0
0.7 0.7 0
0.8 0.7 0
0.8 0.6 0
0.9 0.6 0
0.8 0.7 0
0.9 0.7 0
0.9 0.6 0
1 0.6 0
0.9 0.7 0
1 0.7 0
0.5 0.7 0
0.6 0.7 0
0.5 0.8 0
0.6 0.8 0
0.6 0.7 0
0.7 0.7 0
0.6 0.8 0
0.7 0.8 0
0.7 0.7 0
0.8 0.7 0
0.7 0.8 0
0.8 0.8 0
0.8 0.7 0
0.9 0.7 0
0.8 0.8 0
0.9 0.8 0
0.9 0.7 0
1 0.7 0
0.9 0.8 0
1 0.8 0
0.5 0.8 0
0.6 0.8 0
0.5 0.9 0
0.6 0.9 0
0.6 0.8 0
0.7 0.8 0
0.6 0.9 0
0.7 0.9 0
0.7 0.8 0
0.8 0.8 0
0.7 0.9 0
0.8 0.9 0
0.8 0.8 0
0.9 0.8 0
0.8 0.9 0
0.9 0.9 0
0.9 0.8 0
1 0.8 0
0.9 0.9 0
1 0.9 0
0.5 0.9 0
0.6 0.9 0
0.5 1 0
0.6 1 0
0.6 0.9 0
0.7 0.9 0
0.6 1 0
0.7 1 0
0.7 0.9 0
0.8 0.9 0
0.7 1 0
0.8 1 0
0.8 0.9 0
0.9 0.9 0
0.8 1 0
0.9 1 0
0.9 0.9 0
1 0.9 0
0.9 1 0
1 1 0
</DataArray>
</Points>
<Cells>
<DataArray type="Int32" Name="connectivity" format="ascii">
0 1 3 2 
4 5 7 6 
8 9 11 10 
12 13 15 14 
16 17 19 18 
20 21 23 22 
24 25 27 26 
28 29 31 30 
32 33 35 34 
36 37 39 38 
40 41 43 42 
44 45 47 46 
48 49 51 50 
52 53 55 54 
56 57 59 58 
60 61 63 62 
64 65 67 66 
68 69 71 70 
72 73 75 74 
76 77 79 78 
80 81 83 82 
84 85 87 86 
88 89 91 90 
92 93 95 94 
96 97 99 98 
</DataArray>
<DataArray type="Int32" Name="offsets" format="ascii">
4
8
12
16
20
24
28
32
36
40
44
48
52
56
60
64
68
72
76
80
84
88
92
96
100
</DataArray>
<DataArray type="UInt8" Name="types" format="ascii">
9
9
9
9
9
9
9
9
9
9
9
9
9
9
9
9
9
9
9
9
9
9
9
9
9
</DataArray>
</Cells>
<CellData Scalars="attribute">
<DataArray type="Int32" Name="attribute" format="ascii">
1
1
1
1
1
1
1
1
1
1
1
1
1
1
1
1
1
1
1
1
1
1
1
1
1
</DataArray>
</CellData>
<PointData >
<DataArray type="Float64" Name="div_heat_flux" NumberOfComponents="1"  format="ascii" >
-8.00832716
-8.00832716
-8.00832716
-8.00832716
-5.81475098
-5.81475098
-5.81475098
-5.81475098
-3.9397913
-3.9397913
-3.9397913
-3.9397913
-2.28071059
-2.28071059
-2.28071059
-2.28071059
-0.746600329
-0.746600329
-0.746600329
-0.746600329
-8.00832716
-8.00832716
-8.00832716
-8.00832716
-5.81475098
-5.81475098
-5.81475098
-5.81475098
-3.9397913
-3.9397913
-3.9397913
-3.9397913
-2.28071059
-2.28071059
-2.28071059
-2.28071059
-0.746600329
-0.746600329
-0.746600329
-0.746600329
-8.00832716
-8.00832716
-8.00832716
-8.00832716
-5.81475098
-5.81475098
-5.81475098
-5.81475098
-3.9397913
-3.9397913
-3.9397913
-3.9397913
-2.28071059
-2.28071059
-2.28071059
-2.28071059
-0.746600329
-0.746600329
-0.746600329
-0.746600329
-8.00832716
-8.00832716
-8.00832716
-8.00832716
-5.81475098
-5.81475098
-5.81475098
-5.81475098
-3.9397913
-3.9397913
-3.9397913
-3.9397913
-2.28071059
-2.28071059
-2.28071059
-2.28071059
-0.746600329
-0.746600329
-0.746600329
-0.746600329
-8.00832716
-8.00832716
-8.00832716
-8.00832716
-5.81475098
-5.81475098
-5.81475098
-5.81475098
-3.9397913
-3.9397913
-3.9397913
-3.9397913
-2.28071059
-2.28071059
-2.28071059
-2.28071059
-0.746600329
-0.746600329
-0.746600329
-0.746600329
</DataArray>
<DataArray type="Float64" Name="dtemperature_dt" NumberOfComponents="1"  format="ascii" >
8.00832716
8.00832716
8.00832716
8.00832716
5.81475098
5.81475098
5.81475098
5.81475098
3.9397913
3.9397913
3.9397913
3.9397913
2.28071059
2.28071059
2.28071059
2.28071059
0.746600329
0.746600329
0.746600329
0.746600329
8.00832716
8.00832716
8.00832716
8.00832716
5.81475098
5.81475098
5.81475098
5.81475098
3.9397913
3.9397913
3.9397913
3.9397913
2.28071059
2.28071059
2.28071059
2.28071059
0.746600329
0.746600329
0.746600329
0.746600329
8.00832716
8.00832716
8.00832716
8.00832716
5.81475098
5.81475098
5.81475098
5.81475098
3.9397913
3.9397913
3.9397913
3.9397913
2.28071059
2.28071059
2.28071059
2.28071059
0.746600329
0.746600329
0.746600329
0.746600329
8.00832716
8.00832716
8.00832716
8.00832716
5.81475098
5.81475098
5.81475098
5.81475098
3.9397913
3.9397913
3.9397913
3.9397913
2.28071059
2.28071059
2.28071059
2.28071059
0.746600329
0.746600329
0.746600329
0.746600329
8.00832716
8.00832716
8.00832716
8.00832716
5.81475098
5.81475098
5.81475098
5.81475098
3.9397913
3.9397913
3.9397913
3.9397913
2.28071059
2.28071059
2.28071059
2.28071059
0.746600329
0.746600329
0.746600329
0.746600329
</DataArray>
<DataArray type="Float64" Name="heat_flux" NumberOfComponents="2" ComponentName0="0" ComponentName1="1" format="ascii" >
4.80410924 -3.24370647e-15 
4.00327652 1.8436745e-17 
4.80410924 -2.45121645e-15 
4.00327652 6.55676496e-16 
4.00327652 2.17029545e-16 
3.42180142 -4.59868806e-16 
4.00327652 1.33091926e-15 
3.42180142 -7.38496933e-16 
3.42180142 -3.46675858e-16 
3.02782229 1.54379242e-15 
3.42180142 -1.42215082e-16 
3.02782229 7.30144086e-16 
3.02782229 2.38261491e-16 
2.79975123 -1.68807454e-15 
3.02782229 -3.15321933e-16 
2.79975123 -5.03633328e-16 
2.79975123 1.7424744e-16 
2.7250912 1.11640961e-15 
2.79975123 2.30651583e-16 
2.7250912 1.31800279e-15 
4.80410924 -2.45121645e-15 
4.00327652 6.55676496e-16 
4.80410924 -3.50422892e-15 
4.00327652 1.57459445e-15 
4.00327652 1.33091926e-15 
3.42180142 -7.38496933e-16 
4.00327652 1.67927476e-15 
3.42180142 -1.30797525e-15 
3.42180142 -1.42215082e-16 
3.02782229 7.30144086e-16 
3.42180142 -1.01179838e-15 
3.02782229 8.64732034e-16 
3.02782229 -3.15321933e-16 
2.79975123 -5.03633328e-16 
3.02782229 -1.97276963e-16 
2.79975123 -9.95722681e-16 
2.79975123 2.30651583e-16 
2.7250912 1.31800279e-15 
2.79975123 2.56069893e-17 
2.7250912 6.51672629e-16 
4.80410924 -3.50422892e-15 
4.00327652 1.57459445e-15 
4.80410924 -1.64840828e-15 
4.00327652 1.42973589e-15 
4.00327652 1.67927476e-15 
3.42180142 -1.30797525e-15 
4.00327652 6.62819346e-16 
3.42180142 1.68643965e-16 
3.42180142 -1.01179838e-15 
3.02782229 8.64732034e-16 
3.42180142 -1.52001359e-16 
3.02782229 4.89697697e-16 
3.02782229 -1.97276963e-16 
2.79975123 -9.95722681e-16 
3.02782229 -3.66610729e-17 
2.79975123 -5.61047326e-16 
2.79975123 2.56069893e-17 
2.7250912 6.51672629e-16 
2.79975123 -1.87874338e-16 
2.7250912 3.01935778e-16 
4.80410924 -1.64840828e-15 
4.00327652 1.42973589e-15 
4.80410924 -1.4983213e-15 
4.00327652 9.98659749e-16 
4.00327652 6.62819346e-16 
3.42180142 1.68643965e-16 
4.00327652 1.10762379e-15 
3.42180142 -6.59619567e-16 
3.42180142 -1.52001359e-16 
3.02782229 4.89697697e-16 
3.42180142 -6.40473921e-16 
3.02782229 -8.51966865e-17 
3.02782229 -3.66610729e-17 
2.79975123 -5.61047326e-16 
3.02782229 3.56098072e-16 
2.79975123 -3.40279027e-16 
2.79975123 -1.87874338e-16 
2.7250912 3.01935778e-16 
2.79975123 -2.95350201e-16 
2.7250912 3.45593211e-16 
4.80410924 -1.4983213e-15 
4.00327652 9.98659749e-16 
4.80410924 0 
4.00327652 0 
4.00327652 1.10762379e-15 
3.42180142 -6.59619567e-16 
4.00327652 0 
3.42180142 0 
3.42180142 -6.40473921e-16 
3.02782229 -8.51966865e-17 
3.42180142 0 
3.02782229 0 
3.02782229 3.56098072e-16 
2.79975123 -3.40279027e-16 
3.02782229 0 
2.79975123 0 
2.79975123 -2.95350201e-16 
2.7250912 3.45593211e-16 
2.79975123 0 
2.7250912 0 
</DataArray>
<DataArray type="Float64" Name="temperature" NumberOfComponents="1"  format="ascii" >
0.240249815
0.240249815
0.240249815
0.240249815
0.17444253
0.17444253
0.17444253
0.17444253
0.118193739
0.118193739
0.118193739
0.118193739
0.0684213178
0.0684213178
0.0684213178
0.0684213178
0.0223980099
0.0223980099
0.0223980099
0.0223980099
0.240249815
0.240249815
0.240249815
0.240249815
0.17444253
0.17444253
0.17444253
0.17444253
0.118193739
0.118193739
0.118193739
0.118193739
0.0684213178
0.0684213178
0.0684213178
0.0684213178
0.0223980099
0.0223980099
0.0223980099
0.0223980099
0.240249815
0.240249815
0.240249815
0.240249815
0.17444253
0.17444253
0.17444253
0.17444253
0.118193739
0.118193739
0.118193739
0.118193739
0.0684213178
0.0684213178
0.0684213178
0.0684213178
0.0223980099
0.0223980099
0.0223980099
0.0223980099
0.240249815
0.240249815
0.240249815
0.240249815
0.17444253
0.17444253
0.17444253
0.17444253
0.118193739
0.118193739
0.118193739
0.118193739
0.0684213178
0.0684213178
0.0684213178
0.0684213178
0.0223980099
0.0223980099
0.0223980099
0.0223980099
0.240249815
0.240249815
0.240249815
0.240249815
0.17444253
0.17444253
0.17444253
0.17444253
0.118193739
0.118193739
0.118193739
0.118193739
0.0684213178
0.0684213178
0.0684213178
0.0684213178
0.0223980099
0.0223980099
0.0223980099
0.0223980099
</DataArray>
<DataArray type="Float64" Name="time_integrated_heat_flux" NumberOfComponents="2" ComponentName0="0" ComponentName1="1" format="ascii" >
0.144123277 -9.7311194e-17 
0.120098296 5.53102349e-19 
0.144123277 -7.35364935e-17 
0.120098296 1.96702949e-17 
0.120098296 6.51088636e-18 
0.102654043 -1.37960642e-17 
0.120098296 3.99275779e-17 
0.102654043 -2.2154908e-17 
0.102654043 -1.04002757e-17 
0.0908346687 4.63137726e-17 
0.102654043 -4.26645246e-18 
0.0908346687 2.19043226e-17 
0.0908346687 7.14784472e-18 
0.083992537 -5.06422362e-17 
0.0908346687 -9.459658e-18 
0.083992537 -1.51089998e-17 
0.083992537 5.22742319e-18 
0.081752736 3.34922883e-17 
0.083992537 6.9195475e-18 
0.081752736 3.95400836e-17 
0.144123277 -7.35364935e-17 
0.120098296 1.96702949e-17 
0.144123277 -1.05126868e-16 
0.120098296 4.72378335e-17 
0.120098296 3.99275779e-17 
0.102654043 -2.2154908e-17 
0.120098296 5.03782427e-17 
0.102654043 -3.92392574e-17 
0.102654043 -4.26645246e-18 
0.0908346687 2.19043226e-17 
0.102654043 -3.03539514e-17 
0.0908346687 2.5941961e-17 
0.0908346687 -9.459658e-18 
0.083992537 -1.51089998e-17 
0.0908346687 -5.91830888e-18 
0.083992537 -2.98716804e-17 
0.083992537 6.9195475e-18 
0.081752736 3.95400836e-17 
0.083992537 7.68209679e-19 
0.081752736 1.95501789e-17 
0.144123277 -1.05126868e-16 
0.120098296 4.72378335e-17 
0.144123277 -4.94522484e-17 
0.120098296 4.28920767e-17 
0.120098296 5.03782427e-17 
0.102654043 -3.92392574e-17 
0.120098296 1.98845804e-17 
0.102654043 5.05931894e-18 
0.102654043 -3.03539514e-17 
0.0908346687 2.5941961e-17 
0.102654043 -4.56004077e-18 
0.0908346687 1.46909309e-17 
0.0908346687 -5.91830888e-18 
0.083992537 -2.98716804e-17 
0.0908346687 -1.09983219e-18 
0.083992537 -1.68314198e-17 
0.083992537 7.68209679e-19 
0.081752736 1.95501789e-17 
0.083992537 -5.63623015e-18 
0.081752736 9.05807335e-18 
0.144123277 -4.94522484e-17 
0.120098296 4.28920767e-17 
0.144123277 -4.4949639e-17 
0.120098296 2.99597925e-17 
0.120098296 1.98845804e-17 
0.102654043 5.05931894e-18 
0.120098296 3.32287136e-17 
0.102654043 -1.9788587e-17 
0.102654043 -4.56004077e-18 
0.0908346687 1.46909309e-17 
0.102654043 -1.92142176e-17 
0.0908346687 -2.5559006e-18 
0.0908346687 -1.09983219e-18 
0.083992537 -1.68314198e-17 
0.0908346687 1.06829422e-17 
0.083992537 -1.02083708e-17 
0.083992537 -5.63623015e-18 
0.081752736 9.05807335e-18 
0.083992537 -8.86050604e-18 
0.081752736 1.03677963e-17 
0.144123277 -4.4949639e-17 
0.120098296 2.99597925e-17 
0.144123277 0 
0.120098296 0 
0.120098296 3.32287136e-17 
0.102654043 -1.9788587e-17 
0.120098296 0 
0.102654043 0 
0.102654043 -1.92142176e-17 
0.0908346687 -2.5559006e-18 
0.102654043 0 
0.0908346687 0 
0.0908346687 1.06829422e-17 
0.083992537 -1.02083708e-17 
0.0908346687 0 
0.083992537 0 
0.083992537 -8.86050604e-18 
0.081752736 1.03677963e-17 
0.083992537 0 
0.081752736 0 
</DataArray>
</PointData>
</Piece>
</UnstructuredGrid>
</VTKFile>
