<VTKFile type="UnstructuredGrid" version="2.2" byte_order="LittleEndian">
<UnstructuredGrid>
<Piece NumberOfPoints="400" NumberOfCells="100">
<Points>
<DataArray type="Float64" NumberOfComponents="3" format="ascii">
0 0 0
0.1 0 0
0 0.1 0
0.1 0.1 0
0.1 0 0
0.2 0 0
0.1 0.1 0
0.2 0.1 0
0.2 0 0
0.3 0 0
0.2 0.1 0
0.3 0.1 0
0.3 0 0
0.4 0 0
0.3 0.1 0
0.4 0.1 0
0.4 0 0
0.5 0 0
0.4 0.1 0
0.5 0.1 0
0.5 0 0
0.6 0 0
0.5 0.1 0
0.6 0.1 0
0.6 0 0
0.7 0 0
0.6 0.1 0
0.7 0.1 0
0.7 0 0
0.8 0 0
0.7 0.1 0
0.8 0.1 0
0.8 0 0
0.9 0 0
0.8 0.1 0
0.9 0.1 0
0.9 0 0
1 0 0
0.9 0.1 0
1 0.1 0
0 0.1 0
0.1 0.1 0
0 0.2 0
0.1 0.2 0
0.1 0.1 0
0.2 0.1 0
0.1 0.2 0
0.2 0.2 0
0.2 0.1 0
0.3 0.1 0
0.2 0.2 0
0.3 0.2 0
0.3 0.1 0
0.4 0.1 0
0.3 0.2 0
0.4 0.2 0
0.4 0.1 0
0.5 0.1 0
0.4 0.2 0
0.5 0.2 0
0.5 0.1 0
0.6 0.1 0
0.5 0.2 0
0.6 0.2 0
0.6 0.1 0
0.7 0.1 0
0.6 0.2 0
0.7 0.2 0
0.7 0.1 0
0.8 0.1 0
0.7 0.2 0
0.8 0.2 0
0.8 0.1 0
0.9 0.1 0
0.8 0.2 0
0.9 0.2 0
0.9 0.1 0
1 0.1 0
0.9 0.2 0
1 0.2 0
0 0.2 0
0.1 0.2 0
0 0.3 0
0.1 0.3 0
0.1 0.2 0
0.2 0.2 0
0.1 0.3 0
0.2 0.3 0
0.2 0.2 0
0.3 0.2 0
0.2 0.3 0
0.3 0.3 0
0.3 0.2 0
0.4 0.2 0
0.3 0.3 0
0.4 0.3 0
0.4 0.2 0
0.5 0.2 0
0.4 0.3 0
0.5 0.3 0
0.5 0.2 0
0.6 0.2 0
0.5 0.3 0
0.6 0.3 0
0.6 0.2 0
0.7 0.2 0
0.6 0.3 0
0.7 0.3 0
0.7 0.2 0
0.8 0.2 0
0.7 0.3 0
0.8 0.3 0
0.8 0.2 0
0.9 0.2 0
0.8 0.3 0
0.9 0.3 0
0.9 0.2 0
1 0.2 0
0.9 0.3 0
1 0.3 0
0 0.3 0
0.1 0.3 0
0 0.4 0
0.1 0.4 0
0.1 0.3 0
0.2 0.3 0
0.1 0.4 0
0.2 0.4 0
0.2 0.3 0
0.3 0.3 0
0.2 0.4 0
0.3 0.4 0
0.3 0.3 0
0.4 0.3 0
0.3 0.4 0
0.4 0.4 0
0.4 0.3 0
0.5 0.3 0
0.4 0.4 0
0.5 0.4 0
0.5 0.3 0
0.6 0.3 0
0.5 0.4 0
0.6 0.4 0
0.6 0.3 0
0.7 0.3 0
0.6 0.4 0
0.7 0.4 0
0.7 0.3 0
0.8 0.3 0
0.7 0.4 0
0.8 0.4 0
0.8 0.3 0
0.9 0.3 0
0.8 0.4 0
0.9 0.4 0
0.9 0.3 0
1 0.3 0
0.9 0.4 0
1 0.4 0
0 0.4 0
0.1 0.4 0
0 0.5 0
0.1 0.5 0
0.1 0.4 0
0.2 0.4 0
0.1 0.5 0
0.2 0.5 0
0.2 0.4 0
0.3 0.4 0
0.2 0.5 0
0.3 0.5 0
0.3 0.4 0
0.4 0.4 0
0.3 0.5 0
0.4 0.5 0
0.4 0.4 0
0.5 0.4 0
0.4 0.5 0
0.5 0.5 0
0.5 0.4 0
0.6 0.4 0
0.5 0.5 0
0.6 0.5 0
0.6 0.4 0
0.7 0.4 0
0.6 0.5 0
0.7 0.5 0
0.7 0.4 0
0.8 0.4 0
0.7 0.5 0
0.8 0.5 0
0.8 0.4 0
0.9 0.4 0
0.8 0.5 0
0.9 0.5 0
0.9 0.4 0
1 0.4 0
0.9 0.5 0
1 0.5 0
0 0.5 0
0.1 0.5 0
0 0.6 0
0.1 0.6 0
0.1 0.5 0
0.2 0.5 0
0.1 0.6 0
0.2 0.6 0
0.2 0.5 0
0.3 0.5 0
0.2 0.6 0
0.3 0.6 0
0.3 0.5 0
0.4 0.5 0
0.3 0.6 0
0.4 0.6 0
0.4 0.5 0
0.5 0.5 0
0.4 0.6 0
0.5 0.6 0
0.5 0.5 0
0.6 0.5 0
0.5 0.6 0
0.6 0.6 0
0.6 0.5 0
0.7 0.5 0
0.6 0.6 0
0.7 0.6 0
0.7 0.5 0
0.8 0.5 0
0.7 0.6 0
0.8 0.6 0
0.8 0.5 0
0.9 0.5 0
0.8 0.6 0
0.9 0.6 0
0.9 0.5 0
1 0.5 0
0.9 0.6 0
1 0.6 0
0 0.6 0
0.1 0.6 0
0 0.7 0
0.1 0.7 0
0.1 0.6 0
0.2 0.6 0
0.1 0.7 0
0.2 0.7 0
0.2 0.6 0
0.3 0.6 0
0.2 0.7 0
0.3 0.7 0
0.3 0.6 0
0.4 0.6 0
0.3 0.7 0
0.4 0.7 0
0.4 0.6 0
0.5 0.6 0
0.4 0.7 0
0.5 0.7 0
0.5 0.6 0
0.6 0.6 0
0.5 0.7 0
0.6 0.7 0
0.6 0.6 0
0.7 0.6 0
0.6 0.7 0
0.7 0.7 0
0.7 0.6 0
0.8 0.6 0
0.7 0.7 0
0.8 0.7 0
0.8 0.6 0
0.9 0.6 0
0.8 0.7 0
0.9 0.7 0
0.9 0.6 0
1 0.6 0
0.9 0.7 0
1 0.7 0
0 0.7 0
0.1 0.7 0
0 0.8 0
0.1 0.8 0
0.1 0.7 0
0.2 0.7 0
0.1 0.8 0
0.2 0.8 0
0.2 0.7 0
0.3 0.7 0
0.2 0.8 0
0.3 0.8 0
0.3 0.7 0
0.4 0.7 0
0.3 0.8 0
0.4 0.8 0
0.4 0.7 0
0.5 0.7 0
0.4 0.8 0
0.5 0.8 0
0.5 0.7 0
0.6 0.7 0
0.5 0.8 0
0.6 0.8 0
0.6 0.7 0
0.7 0.7 0
0.6 0.8 0
0.7 0.8 0
0.7 0.7 0
0.8 0.7 0
0.7 0.8 0
0.8 0.8 0
0.8 0.7 0
0.9 0.7 0
0.8 0.8 0
0.9 0.8 0
0.9 0.7 0
1 0.7 0
0.9 0.8 0
1 0.8 0
0 0.8 0
0.1 0.8 0
0 0.9 0
0.1 0.9 0
0.1 0.8 0
0.2 0.8 0
0.1 0.9 0
0.2 0.9 0
0.2 0.8 0
0.3 0.8 0
0.2 0.9 0
0.3 0.9 0
0.3 0.8 0
0.4 0.8 0
0.3 0.9 0
0.4 0.9 0
0.4 0.8 0
0.5 0.8 0
0.4 0.9 0
0.5 0.9 0
0.5 0.8 0
0.6 0.8 0
0.5 0.9 0
0.6 0.9 0
0.6 0.8 0
0.7 0.8 0
0.6 0.9 0
0.7 0.9 0
0.7 0.8 0
0.8 0.8 0
0.7 0.9 0
0.8 0.9 0
0.8 0.8 0
0.9 0.8 0
0.8 0.9 0
0.9 0.9 0
0.9 0.8 0
1 0.8 0
0.9 0.9 0
1 0.9 0
0 0.9 0
0.1 0.9 0
0 1 0
0.1 1 0
0.1 0.9 0
0.2 0.9 0
0.1 1 0
0.2 1 0
0.2 0.9 0
0.3 0.9 0
0.2 1 0
0.3 1 0
0.3 0.9 0
0.4 0.9 0
0.3 1 0
0.4 1 0
0.4 0.9 0
0.5 0.9 0
0.4 1 0
0.5 1 0
0.5 0.9 0
0.6 0.9 0
0.5 1 0
0.6 1 0
0.6 0.9 0
0.7 0.9 0
0.6 1 0
0.7 1 0
0.7 0.9 0
0.8 0.9 0
0.7 1 0
0.8 1 0
0.8 0.9 0
0.9 0.9 0
0.8 1 0
0.9 1 0
0.9 0.9 0
1 0.9 0
0.9 1 0
1 1 0
</DataArray>
</Points>
<Cells>
<DataArray type="Int32" Name="connectivity" format="ascii">
0 1 3 2 
4 5 7 6 
8 9 11 10 
12 13 15 14 
16 17 19 18 
20 21 23 22 
24 25 27 26 
28 29 31 30 
32 33 35 34 
36 37 39 38 
40 41 43 42 
44 45 47 46 
48 49 51 50 
52 53 55 54 
56 57 59 58 
60 61 63 62 
64 65 67 66 
68 69 71 70 
72 73 75 74 
76 77 79 78 
80 81 83 82 
84 85 87 86 
88 89 91 90 
92 93 95 94 
96 97 99 98 
100 101 103 102 
104 105 107 106 
108 109 111 110 
112 113 115 114 
116 117 119 118 
120 121 123 122 
124 125 127 126 
128 129 131 130 
132 133 135 134 
136 137 139 138 
140 141 143 142 
144 145 147 146 
148 149 151 150 
152 153 155 154 
156 157 159 158 
160 161 163 162 
164 165 167 166 
168 169 171 170 
172 173 175 174 
176 177 179 178 
180 181 183 182 
184 185 187 186 
188 189 191 190 
192 193 195 194 
196 197 199 198 
200 201 203 202 
204 205 207 206 
208 209 211 210 
212 213 215 214 
216 217 219 218 
220 221 223 222 
224 225 227 226 
228 229 231 230 
232 233 235 234 
236 237 239 238 
240 241 243 242 
244 245 247 246 
248 249 251 250 
252 253 255 254 
256 257 259 258 
260 261 263 262 
264 265 267 266 
268 269 271 270 
272 273 275 274 
276 277 279 278 
280 281 283 282 
284 285 287 286 
288 289 291 290 
292 293 295 294 
296 297 299 298 
300 301 303 302 
304 305 307 306 
308 309 311 310 
312 313 315 314 
316 317 319 318 
320 321 323 322 
324 325 327 326 
328 329 331 330 
332 333 335 334 
336 337 339 338 
340 341 343 342 
344 345 347 346 
348 349 351 350 
352 353 355 354 
356 357 359 358 
360 361 363 362 
364 365 367 366 
368 369 371 370 
372 373 375 374 
376 377 379 378 
380 381 383 382 
384 385 387 386 
388 389 391 390 
392 393 395 394 
396 397 399 398 
</DataArray>
<DataArray type="Int32" Name="offsets" format="ascii">
4
8
12
16
20
24
28
32
36
40
44
48
52
56
60
64
68
72
76
80
84
88
92
96
100
104
108
112
116
120
124
128
132
136
140
144
148
152
156
160
164
168
172
176
180
184
188
192
196
200
204
208
212
216
220
224
228
232
236
240
244
248
252
256
260
264
268
272
276
280
284
288
292
296
300
304
308
312
316
320
324
328
332
336
340
344
348
352
356
360
364
368
372
376
380
384
388
392
396
400
</DataArray>
<DataArray type="UInt8" Name="types" format="ascii">
9
9
9
9
9
9
9
9
9
9
9
9
9
9
9
9
9
9
9
9
9
9
9
9
9
9
9
9
9
9
9
9
9
9
9
9
9
9
9
9
9
9
9
9
9
9
9
9
9
9
9
9
9
9
9
9
9
9
9
9
9
9
9
9
9
9
9
9
9
9
9
9
9
9
9
9
9
9
9
9
9
9
9
9
9
9
9
9
9
9
9
9
9
9
9
9
9
9
9
9
</DataArray>
</Cells>
<CellData Scalars="attribute">
<DataArray type="Int32" Name="attribute" format="ascii">
1
1
1
1
1
1
1
1
1
1
1
1
1
1
1
1
1
1
1
1
1
1
1
1
1
1
1
1
1
1
1
1
1
1
1
1
1
1
1
1
1
1
1
1
1
1
1
1
1
1
1
1
1
1
1
1
1
1
1
1
1
1
1
1
1
1
1
1
1
1
1
1
1
1
1
1
1
1
1
1
1
1
1
1
1
1
1
1
1
1
1
1
1
1
1
1
1
1
1
1
</DataArray>
</CellData>
<PointData >
<DataArray type="Float64" Name="div_heat_flux" NumberOfComponents="1"  format="ascii" >
-28.9826304
-28.9826304
-28.9826304
-28.9826304
-22.7825558
-22.7825558
-22.7825558
-22.7825558
-17.8308404
-17.8308404
-17.8308404
-17.8308404
-13.8561573
-13.8561573
-13.8561573
-13.8561573
-10.6407158
-10.6407158
-10.6407158
-10.6407158
-8.00832716
-8.00832716
-8.00832716
-8.00832716
-5.81475098
-5.81475098
-5.81475098
-5.81475098
-3.9397913
-3.9397913
-3.9397913
-3.9397913
-2.28071059
-2.28071059
-2.28071059
-2.28071059
-0.746600329
-0.746600329
-0.746600329
-0.746600329
-28.9826304
-28.9826304
-28.9826304
-28.9826304
-22.7825558
-22.7825558
-22.7825558
-22.7825558
-17.8308404
-17.8308404
-17.8308404
-17.8308404
-13.8561573
-13.8561573
-13.8561573
-13.8561573
-10.6407158
-10.6407158
-10.6407158
-10.6407158
-8.00832716
-8.00832716
-8.00832716
-8.00832716
-5.81475098
-5.81475098
-5.81475098
-5.81475098
-3.9397913
-3.9397913
-3.9397913
-3.9397913
-2.28071059
-2.28071059
-2.28071059
-2.28071059
-0.746600329
-0.746600329
-0.746600329
-0.746600329
-28.9826304
-28.9826304
-28.9826304
-28.9826304
-22.7825558
-22.7825558
-22.7825558
-22.7825558
-17.8308404
-17.8308404
-17.8308404
-17.8308404
-13.8561573
-13.8561573
-13.8561573
-13.8561573
-10.6407158
-10.6407158
-10.6407158
-10.6407158
-8.00832716
-8.00832716
-8.00832716
-8.00832716
-5.81475098
-5.81475098
-5.81475098
-5.81475098
-3.9397913
-3.9397913
-3.9397913
-3.9397913
-2.28071059
-2.28071059
-2.28071059
-2.28071059
-0.746600329
-0.746600329
-0.746600329
-0.746600329
-28.9826304
-28.9826304
-28.9826304
-28.9826304
-22.7825558
-22.7825558
-22.7825558
-22.7825558
-17.8308404
-17.8308404
-17.8308404
-17.8308404
-13.8561573
-13.8561573
-13.8561573
-13.8561573
-10.6407158
-10.6407158
-10.6407158
-10.6407158
-8.00832716
-8.00832716
-8.00832716
-8.00832716
-5.81475098
-5.81475098
-5.81475098
-5.81475098
-3.9397913
-3.9397913
-3.9397913
-3.9397913
-2.28071059
-2.28071059
-2.28071059
-2.28071059
-0.746600329
-0.746600329
-0.746600329
-0.746600329
-28.9826304
-28.9826304
-28.9826304
-28.9826304
-22.7825558
-22.7825558
-22.7825558
-22.7825558
-17.8308404
-17.8308404
-17.8308404
-17.8308404
-13.8561573
-13.8561573
-13.8561573
-13.8561573
-10.6407158
-10.6407158
-10.6407158
-10.6407158
-8.00832716
-8.00832716
-8.00832716
-8.00832716
-5.81475098
-5.81475098
-5.81475098
-5.81475098
-3.9397913
-3.9397913
-3.9397913
-3.9397913
-2.28071059
-2.28071059
-2.28071059
-2.28071059
-0.746600329
-0.746600329
-0.746600329
-0.746600329
-28.9826304
-28.9826304
-28.9826304
-28.9826304
-22.7825558
-22.7825558
-22.7825558
-22.7825558
-17.8308404
-17.8308404
-17.8308404
-17.8308404
-13.8561573
-13.8561573
-13.8561573
-13.8561573
-10.6407158
-10.6407158
-10.6407158
-10.6407158
-8.00832716
-8.00832716
-8.00832716
-8.00832716
-5.81475098
-5.81475098
-5.81475098
-5.81475098
-3.9397913
-3.9397913
-3.9397913
-3.9397913
-2.28071059
-2.28071059
-2.28071059
-2.28071059
-0.746600329
-0.746600329
-0.746600329
-0.746600329
-28.9826304
-28.9826304
-28.9826304
-28.9826304
-22.7825558
-22.7825558
-22.7825558
-22.7825558
-17.8308404
-17.8308404
-17.8308404
-17.8308404
-13.8561573
-13.8561573
-13.8561573
-13.8561573
-10.6407158
-10.6407158
-10.6407158
-10.6407158
-8.00832716
-8.00832716
-8.00832716
-8.00832716
-5.81475098
-5.81475098
-5.81475098
-5.81475098
-3.9397913
-3.9397913
-3.9397913
-3.9397913
-2.28071059
-2.28071059
-2.28071059
-2.28071059
-0.746600329
-0.746600329
-0.746600329
-0.746600329
-28.9826304
-28.9826304
-28.9826304
-28.9826304
-22.7825558
-22.7825558
-22.7825558
-22.7825558
-17.8308404
-17.8308404
-17.8308404
-17.8308404
-13.8561573
-13.8561573
-13.8561573
-13.8561573
-10.6407158
-10.6407158
-10.6407158
-10.6407158
-8.00832716
-8.00832716
-8.00832716
-8.00832716
-5.81475098
-5.81475098
-5.81475098
-5.81475098
-3.9397913
-3.9397913
-3.9397913
-3.9397913
-2.28071059
-2.28071059
-2.28071059
-2.28071059
-0.746600329
-0.746600329
-0.746600329
-0.746600329
-28.9826304
-28.9826304
-28.9826304
-28.9826304
-22.7825558
-22.7825558
-22.7825558
-22.7825558
-17.8308404
-17.8308404
-17.8308404
-17.8308404
-13.8561573
-13.8561573
-13.8561573
-13.8561573
-10.6407158
-10.6407158
-10.6407158
-10.6407158
-8.00832716
-8.00832716
-8.00832716
-8.00832716
-5.81475098
-5.81475098
-5.81475098
-5.81475098
-3.9397913
-3.9397913
-3.9397913
-3.9397913
-2.28071059
-2.28071059
-2.28071059
-2.28071059
-0.746600329
-0.746600329
-0.746600329
-0.746600329
-28.9826304
-28.9826304
-28.9826304
-28.9826304
-22.7825558
-22.7825558
-22.7825558
-22.7825558
-17.8308404
-17.8308404
-17.8308404
-17.8308404
-13.8561573
-13.8561573
-13.8561573
-13.8561573
-10.6407158
-10.6407158
-10.6407158
-10.6407158
-8.00832716
-8.00832716
-8.00832716
-8.00832716
-5.81475098
-5.81475098
-5.81475098
-5.81475098
-3.9397913
-3.9397913
-3.9397913
-3.9397913
-2.28071059
-2.28071059
-2.28071059
-2.28071059
-0.746600329
-0.746600329
-0.746600329
-0.746600329
</DataArray>
<DataArray type="Float64" Name="dtemperature_dt" NumberOfComponents="1"  format="ascii" >
28.9826304
28.9826304
28.9826304
28.9826304
22.7825558
22.7825558
22.7825558
22.7825558
17.8308404
17.8308404
17.8308404
17.8308404
13.8561573
13.8561573
13.8561573
13.8561573
10.6407158
10.6407158
10.6407158
10.6407158
8.00832716
8.00832716
8.00832716
8.00832716
5.81475098
5.81475098
5.81475098
5.81475098
3.9397913
3.9397913
3.9397913
3.9397913
2.28071059
2.28071059
2.28071059
2.28071059
0.746600329
0.746600329
0.746600329
0.746600329
28.9826304
28.9826304
28.9826304
28.9826304
22.7825558
22.7825558
22.7825558
22.7825558
17.8308404
17.8308404
17.8308404
17.8308404
13.8561573
13.8561573
13.8561573
13.8561573
10.6407158
10.6407158
10.6407158
10.6407158
8.00832716
8.00832716
8.00832716
8.00832716
5.81475098
5.81475098
5.81475098
5.81475098
3.9397913
3.9397913
3.9397913
3.9397913
2.28071059
2.28071059
2.28071059
2.28071059
0.746600329
0.746600329
0.746600329
0.746600329
28.9826304
28.9826304
28.9826304
28.9826304
22.7825558
22.7825558
22.7825558
22.7825558
17.8308404
17.8308404
17.8308404
17.8308404
13.8561573
13.8561573
13.8561573
13.8561573
10.6407158
10.6407158
10.6407158
10.6407158
8.00832716
8.00832716
8.00832716
8.00832716
5.81475098
5.81475098
5.81475098
5.81475098
3.9397913
3.9397913
3.9397913
3.9397913
2.28071059
2.28071059
2.28071059
2.28071059
0.746600329
0.746600329
0.746600329
0.746600329
28.9826304
28.9826304
28.9826304
28.9826304
22.7825558
22.7825558
22.7825558
22.7825558
17.8308404
17.8308404
17.8308404
17.8308404
13.8561573
13.8561573
13.8561573
13.8561573
10.6407158
10.6407158
10.6407158
10.6407158
8.00832716
8.00832716
8.00832716
8.00832716
5.81475098
5.81475098
5.81475098
5.81475098
3.9397913
3.9397913
3.9397913
3.9397913
2.28071059
2.28071059
2.28071059
2.28071059
0.746600329
0.746600329
0.746600329
0.746600329
28.9826304
28.9826304
28.9826304
28.9826304
22.7825558
22.7825558
22.7825558
22.7825558
17.8308404
17.8308404
17.8308404
17.8308404
13.8561573
13.8561573
13.8561573
13.8561573
10.6407158
10.6407158
10.6407158
10.6407158
8.00832716
8.00832716
8.00832716
8.00832716
5.81475098
5.81475098
5.81475098
5.81475098
3.9397913
3.9397913
3.9397913
3.9397913
2.28071059
2.28071059
2.28071059
2.28071059
0.746600329
0.746600329
0.746600329
0.746600329
28.9826304
28.9826304
28.9826304
28.9826304
22.7825558
22.7825558
22.7825558
22.7825558
17.8308404
17.8308404
17.8308404
17.8308404
13.8561573
13.8561573
13.8561573
13.8561573
10.6407158
10.6407158
10.6407158
10.6407158
8.00832716
8.00832716
8.00832716
8.00832716
5.81475098
5.81475098
5.81475098
5.81475098
3.9397913
3.9397913
3.9397913
3.9397913
2.28071059
2.28071059
2.28071059
2.28071059
0.746600329
0.746600329
0.746600329
0.746600329
28.9826304
28.9826304
28.9826304
28.9826304
22.7825558
22.7825558
22.7825558
22.7825558
17.8308404
17.8308404
17.8308404
17.8308404
13.8561573
13.8561573
13.8561573
13.8561573
10.6407158
10.6407158
10.6407158
10.6407158
8.00832716
8.00832716
8.00832716
8.00832716
5.81475098
5.81475098
5.81475098
5.81475098
3.9397913
3.9397913
3.9397913
3.9397913
2.28071059
2.28071059
2.28071059
2.28071059
0.746600329
0.746600329
0.746600329
0.746600329
28.9826304
28.9826304
28.9826304
28.9826304
22.7825558
22.7825558
22.7825558
22.7825558
17.8308404
17.8308404
17.8308404
17.8308404
13.8561573
13.8561573
13.8561573
13.8561573
10.6407158
10.6407158
10.6407158
10.6407158
8.00832716
8.00832716
8.00832716
8.00832716
5.81475098
5.81475098
5.81475098
5.81475098
3.9397913
3.9397913
3.9397913
3.9397913
2.28071059
2.28071059
2.28071059
2.28071059
0.746600329
0.746600329
0.746600329
0.746600329
28.9826304
28.9826304
28.9826304
28.9826304
22.7825558
22.7825558
22.7825558
22.7825558
17.8308404
17.8308404
17.8308404
17.8308404
13.8561573
13.8561573
13.8561573
13.8561573
10.6407158
10.6407158
10.6407158
10.6407158
8.00832716
8.00832716
8.00832716
8.00832716
5.81475098
5.81475098
5.81475098
5.81475098
3.9397913
3.9397913
3.9397913
3.9397913
2.28071059
2.28071059
2.28071059
2.28071059
0.746600329
0.746600329
0.746600329
0.746600329
28.9826304
28.9826304
28.9826304
28.9826304
22.7825558
22.7825558
22.7825558
22.7825558
17.8308404
17.8308404
17.8308404
17.8308404
13.8561573
13.8561573
13.8561573
13.8561573
10.6407158
10.6407158
10.6407158
10.6407158
8.00832716
8.00832716
8.00832716
8.00832716
5.81475098
5.81475098
5.81475098
5.81475098
3.9397913
3.9397913
3.9397913
3.9397913
2.28071059
2.28071059
2.28071059
2.28071059
0.746600329
0.746600329
0.746600329
0.746600329
</DataArray>
<DataArray type="Float64" Name="heat_flux" NumberOfComponents="2" ComponentName0="0" ComponentName1="1" format="ascii" >
14.2133992 0 
11.3151362 0 
14.2133992 -4.94375674e-16 
11.3151362 1.69961194e-15 
11.3151362 0 
9.03688058 0 
11.3151362 7.85614174e-17 
9.03688058 -1.35925155e-16 
9.03688058 0 
7.25379655 0 
9.03688058 -3.64942203e-15 
7.25379655 1.52705463e-15 
7.25379655 0 
5.86818081 0 
7.25379655 4.15313138e-16 
5.86818081 3.11073232e-16 
5.86818081 0 
4.80410924 0 
5.86818081 6.70412411e-17 
4.80410924 -6.36922811e-17 
4.80410924 0 
4.00327652 0 
4.80410924 -9.14192493e-16 
4.00327652 4.85160079e-16 
4.00327652 0 
3.42180142 0 
4.00327652 1.22295191e-16 
3.42180142 -2.76940792e-16 
3.42180142 0 
3.02782229 0 
3.42180142 -2.45052096e-16 
3.02782229 3.17624647e-16 
3.02782229 0 
2.79975123 0 
3.02782229 4.01745461e-16 
2.79975123 -1.11036115e-15 
2.79975123 0 
2.7250912 0 
2.79975123 -1.13280159e-17 
2.7250912 4.0630664e-16 
14.2133992 -4.94375674e-16 
11.3151362 1.69961194e-15 
14.2133992 2.25874174e-16 
11.3151362 -6.54246701e-16 
11.3151362 7.85614174e-17 
9.03688058 -1.35925155e-16 
11.3151362 6.05241138e-16 
9.03688058 -8.50695307e-16 
9.03688058 -3.64942203e-15 
7.25379655 1.52705463e-15 
9.03688058 -9.54654204e-16 
7.25379655 -2.31734745e-16 
7.25379655 4.15313138e-16 
5.86818081 3.11073232e-16 
7.25379655 -6.15863406e-16 
5.86818081 8.84670548e-16 
5.86818081 6.70412411e-17 
4.80410924 -6.36922811e-17 
5.86818081 5.99916943e-16 
4.80410924 -1.28451646e-15 
4.80410924 -9.14192493e-16 
4.00327652 4.85160079e-16 
4.80410924 -1.30492884e-15 
4.00327652 1.53514604e-16 
4.00327652 1.22295191e-16 
3.42180142 -2.76940792e-16 
4.00327652 1.40444828e-15 
3.42180142 -4.61667331e-17 
3.42180142 -2.45052096e-16 
3.02782229 3.17624647e-16 
3.42180142 -5.92900173e-17 
3.02782229 2.4740232e-16 
3.02782229 4.01745461e-16 
2.79975123 -1.11036115e-15 
3.02782229 8.16142948e-16 
2.79975123 -6.97511935e-16 
2.79975123 -1.13280159e-17 
2.7250912 4.0630664e-16 
2.79975123 9.94431733e-17 
2.7250912 8.02165249e-16 
14.2133992 2.25874174e-16 
11.3151362 -6.54246701e-16 
14.2133992 -3.06179909e-16 
11.3151362 5.9363278e-15 
11.3151362 6.05241138e-16 
9.03688058 -8.50695307e-16 
11.3151362 -2.8756407e-15 
9.03688058 3.97798144e-16 
9.03688058 -9.54654204e-16 
7.25379655 -2.31734745e-16 
9.03688058 -2.83929197e-15 
7.25379655 2.57386203e-15 
7.25379655 -6.15863406e-16 
5.86818081 8.84670548e-16 
7.25379655 1.09606982e-15 
5.86818081 -4.80295581e-16 
5.86818081 5.99916943e-16 
4.80410924 -1.28451646e-15 
5.86818081 -9.98526621e-16 
4.80410924 1.01613004e-15 
4.80410924 -1.30492884e-15 
4.00327652 1.53514604e-16 
4.80410924 -2.04366448e-15 
4.00327652 -3.83924576e-16 
4.00327652 1.40444828e-15 
3.42180142 -4.61667331e-17 
4.00327652 1.302072e-15 
3.42180142 -2.41552102e-17 
3.42180142 -5.92900173e-17 
3.02782229 2.4740232e-16 
3.42180142 9.378507e-17 
3.02782229 6.18809094e-16 
3.02782229 8.16142948e-16 
2.79975123 -6.97511935e-16 
3.02782229 6.06772506e-16 
2.79975123 -1.18211701e-15 
2.79975123 9.94431733e-17 
2.7250912 8.02165249e-16 
2.79975123 -1.34655615e-16 
2.7250912 7.33202183e-16 
14.2133992 -3.06179909e-16 
11.3151362 5.9363278e-15 
14.2133992 -1.10133209e-15 
11.3151362 -7.27769078e-16 
11.3151362 -2.8756407e-15 
9.03688058 3.97798144e-16 
11.3151362 -6.19349444e-16 
9.03688058 9.16523962e-16 
9.03688058 -2.83929197e-15 
7.25379655 2.57386203e-15 
9.03688058 4.14194065e-16 
7.25379655 -9.75983078e-16 
7.25379655 1.09606982e-15 
5.86818081 -4.80295581e-16 
7.25379655 -5.71252783e-16 
5.86818081 -2.0566497e-16 
5.86818081 -9.98526621e-16 
4.80410924 1.01613004e-15 
5.86818081 -1.76354595e-15 
4.80410924 6.17663269e-16 
4.80410924 -2.04366448e-15 
4.00327652 -3.83924576e-16 
4.80410924 -2.39055916e-15 
4.00327652 -8.90613843e-16 
4.00327652 1.302072e-15 
3.42180142 -2.41552102e-17 
4.00327652 9.87252202e-16 
3.42180142 -1.04083217e-15 
3.42180142 9.378507e-17 
3.02782229 6.18809094e-16 
3.42180142 -3.41914546e-17 
3.02782229 -1.90269025e-16 
3.02782229 6.06772506e-16 
2.79975123 -1.18211701e-15 
3.02782229 5.20676904e-16 
2.79975123 -1.09776915e-15 
2.79975123 -1.34655615e-16 
2.7250912 7.33202183e-16 
2.79975123 -9.67511648e-17 
2.7250912 6.16739517e-16 
14.2133992 -1.10133209e-15 
11.3151362 -7.27769078e-16 
14.2133992 1.9703442e-15 
11.3151362 2.66061329e-16 
11.3151362 -6.19349444e-16 
9.03688058 9.16523962e-16 
11.3151362 -9.03403258e-16 
9.03688058 -4.41063583e-16 
9.03688058 4.14194065e-16 
7.25379655 -9.75983078e-16 
9.03688058 1.07020263e-15 
7.25379655 -1.2706458e-16 
7.25379655 -5.71252783e-16 
5.86818081 -2.0566497e-16 
7.25379655 -1.74166496e-15 
5.86818081 2.81836137e-15 
5.86818081 -1.76354595e-15 
4.80410924 6.17663269e-16 
5.86818081 -3.3907528e-16 
4.80410924 2.24558263e-16 
4.80410924 -2.39055916e-15 
4.00327652 -8.90613843e-16 
4.80410924 -3.1108613e-15 
4.00327652 -5.17800902e-16 
4.00327652 9.87252202e-16 
3.42180142 -1.04083217e-15 
4.00327652 1.10165699e-15 
3.42180142 -1.06609502e-15 
3.42180142 -3.41914546e-17 
3.02782229 -1.90269025e-16 
3.42180142 3.42525001e-16 
3.02782229 5.96918996e-16 
3.02782229 5.20676904e-16 
2.79975123 -1.09776915e-15 
3.02782229 -1.88401277e-16 
2.79975123 -8.72510732e-16 
2.79975123 -9.67511648e-17 
2.7250912 6.16739517e-16 
2.79975123 1.51788296e-16 
2.7250912 1.00884781e-15 
14.2133992 1.9703442e-15 
11.3151362 2.66061329e-16 
14.2133992 7.39356851e-15 
11.3151362 -4.74190306e-17 
11.3151362 -9.03403258e-16 
9.03688058 -4.41063583e-16 
11.3151362 1.0136162e-15 
9.03688058 -3.17980833e-17 
9.03688058 1.07020263e-15 
7.25379655 -1.2706458e-16 
9.03688058 -3.98541068e-15 
7.25379655 5.14075768e-15 
7.25379655 -1.74166496e-15 
5.86818081 2.81836137e-15 
7.25379655 -1.07993217e-15 
5.86818081 2.18587942e-15 
5.86818081 -3.3907528e-16 
4.80410924 2.24558263e-16 
5.86818081 -2.39981012e-16 
4.80410924 2.94314685e-15 
4.80410924 -3.1108613e-15 
4.00327652 -5.17800902e-16 
4.80410924 -1.59998298e-15 
4.00327652 1.34094143e-16 
4.00327652 1.10165699e-15 
3.42180142 -1.06609502e-15 
4.00327652 -2.60458312e-16 
3.42180142 3.28853215e-16 
3.42180142 3.42525001e-16 
3.02782229 5.96918996e-16 
3.42180142 -4.67290593e-16 
3.02782229 4.86007941e-16 
3.02782229 -1.88401277e-16 
2.79975123 -8.72510732e-16 
3.02782229 -8.30532855e-16 
2.79975123 -1.16740782e-16 
2.79975123 1.51788296e-16 
2.7250912 1.00884781e-15 
2.79975123 1.88506463e-16 
2.7250912 1.2986663e-15 
14.2133992 7.39356851e-15 
11.3151362 -4.74190306e-17 
14.2133992 1.00248275e-15 
11.3151362 3.61849323e-16 
11.3151362 1.0136162e-15 
9.03688058 -3.17980833e-17 
11.3151362 -5.4642857e-15 
9.03688058 -5.53451621e-16 
9.03688058 -3.98541068e-15 
7.25379655 5.14075768e-15 
9.03688058 -7.57356927e-15 
7.25379655 6.91034692e-15 
7.25379655 -1.07993217e-15 
5.86818081 2.18587942e-15 
7.25379655 8.36357388e-16 
5.86818081 1.1277147e-15 
5.86818081 -2.39981012e-16 
4.80410924 2.94314685e-15 
5.86818081 -4.81295728e-15 
4.80410924 2.98183955e-15 
4.80410924 -1.59998298e-15 
4.00327652 1.34094143e-16 
4.80410924 -2.04204891e-15 
4.00327652 7.21511836e-16 
4.00327652 -2.60458312e-16 
3.42180142 3.28853215e-16 
4.00327652 3.77551977e-16 
3.42180142 -5.06858685e-16 
3.42180142 -4.67290593e-16 
3.02782229 4.86007941e-16 
3.42180142 -8.55566806e-16 
3.02782229 1.68558638e-16 
3.02782229 -8.30532855e-16 
2.79975123 -1.16740782e-16 
3.02782229 6.26024607e-17 
2.79975123 -3.88891428e-16 
2.79975123 1.88506463e-16 
2.7250912 1.2986663e-15 
2.79975123 -1.34316944e-16 
2.7250912 6.20567643e-16 
14.2133992 1.00248275e-15 
11.3151362 3.61849323e-16 
14.2133992 -2.87401843e-15 
11.3151362 -4.42183919e-15 
11.3151362 -5.4642857e-15 
9.03688058 -5.53451621e-16 
11.3151362 3.58715528e-16 
9.03688058 -1.46812635e-15 
9.03688058 -7.57356927e-15 
7.25379655 6.91034692e-15 
9.03688058 -8.51626735e-15 
7.25379655 6.29016768e-15 
7.25379655 8.36357388e-16 
5.86818081 1.1277147e-15 
7.25379655 -2.69751007e-15 
5.86818081 3.44341894e-15 
5.86818081 -4.81295728e-15 
4.80410924 2.98183955e-15 
5.86818081 1.3334405e-16 
4.80410924 -3.19451371e-16 
4.80410924 -2.04204891e-15 
4.00327652 7.21511836e-16 
4.80410924 2.26025191e-16 
4.00327652 5.3504795e-16 
4.00327652 3.77551977e-16 
3.42180142 -5.06858685e-16 
4.00327652 -4.87134974e-16 
3.42180142 1.86879812e-15 
3.42180142 -8.55566806e-16 
3.02782229 1.68558638e-16 
3.42180142 -1.40252033e-18 
3.02782229 4.68735816e-16 
3.02782229 6.26024607e-17 
2.79975123 -3.88891428e-16 
3.02782229 6.72329181e-16 
2.79975123 -6.26296373e-16 
2.79975123 -1.34316944e-16 
2.7250912 6.20567643e-16 
2.79975123 -1.44522847e-16 
2.7250912 3.59109367e-16 
14.2133992 -2.87401843e-15 
11.3151362 -4.42183919e-15 
14.2133992 -6.31696622e-16 
11.3151362 -4.25040003e-16 
11.3151362 3.58715528e-16 
9.03688058 -1.46812635e-15 
11.3151362 2.33339471e-15 
9.03688058 -2.74760146e-15 
9.03688058 -8.51626735e-15 
7.25379655 6.29016768e-15 
9.03688058 -1.97605162e-15 
7.25379655 -3.62657553e-16 
7.25379655 -2.69751007e-15 
5.86818081 3.44341894e-15 
7.25379655 9.04080147e-16 
5.86818081 -1.54198619e-16 
5.86818081 1.3334405e-16 
4.80410924 -3.19451371e-16 
5.86818081 -5.28543356e-17 
4.80410924 -1.33703964e-15 
4.80410924 2.26025191e-16 
4.00327652 5.3504795e-16 
4.80410924 -7.52826647e-16 
4.00327652 6.68434013e-16 
4.00327652 -4.87134974e-16 
3.42180142 1.86879812e-15 
4.00327652 1.12163812e-16 
3.42180142 5.25848041e-16 
3.42180142 -1.40252033e-18 
3.02782229 4.68735816e-16 
3.42180142 -5.63277952e-16 
3.02782229 1.54470531e-16 
3.02782229 6.72329181e-16 
2.79975123 -6.26296373e-16 
3.02782229 4.32649279e-16 
2.79975123 -4.03684179e-16 
2.79975123 -1.44522847e-16 
2.7250912 3.59109367e-16 
2.79975123 -1.91186877e-16 
2.7250912 3.15607758e-16 
14.2133992 -6.31696622e-16 
11.3151362 -4.25040003e-16 
14.2133992 0 
11.3151362 0 
11.3151362 2.33339471e-15 
9.03688058 -2.74760146e-15 
11.3151362 0 
9.03688058 0 
9.03688058 -1.97605162e-15 
7.25379655 -3.62657553e-16 
9.03688058 0 
7.25379655 0 
7.25379655 9.04080147e-16 
5.86818081 -1.54198619e-16 
7.25379655 0 
5.86818081 0 
5.86818081 -5.28543356e-17 
4.80410924 -1.33703964e-15 
5.86818081 0 
4.80410924 0 
4.80410924 -7.52826647e-16 
4.00327652 6.68434013e-16 
4.80410924 0 
4.00327652 0 
4.00327652 1.12163812e-16 
3.42180142 5.25848041e-16 
4.00327652 0 
3.42180142 0 
3.42180142 -5.63277952e-16 
3.02782229 1.54470531e-16 
3.42180142 0 
3.02782229 0 
3.02782229 4.32649279e-16 
2.79975123 -4.03684179e-16 
3.02782229 0 
2.79975123 0 
2.79975123 -1.91186877e-16 
2.7250912 3.15607758e-16 
2.79975123 0 
2.7250912 0 
</DataArray>
<DataArray type="Float64" Name="temperature" NumberOfComponents="1"  format="ascii" >
0.869478911
0.869478911
0.869478911
0.869478911
0.683476673
0.683476673
0.683476673
0.683476673
0.534925211
0.534925211
0.534925211
0.534925211
0.41568472
0.41568472
0.41568472
0.41568472
0.319221473
0.319221473
0.319221473
0.319221473
0.240249815
0.240249815
0.240249815
0.240249815
0.17444253
0.17444253
0.17444253
0.17444253
0.118193739
0.118193739
0.118193739
0.118193739
0.0684213178
0.0684213178
0.0684213178
0.0684213178
0.0223980099
0.0223980099
0.0223980099
0.0223980099
0.869478911
0.869478911
0.869478911
0.869478911
0.683476673
0.683476673
0.683476673
0.683476673
0.534925211
0.534925211
0.534925211
0.534925211
0.41568472
0.41568472
0.41568472
0.41568472
0.319221473
0.319221473
0.319221473
0.319221473
0.240249815
0.240249815
0.240249815
0.240249815
0.17444253
0.17444253
0.17444253
0.17444253
0.118193739
0.118193739
0.118193739
0.118193739
0.0684213178
0.0684213178
0.0684213178
0.0684213178
0.0223980099
0.0223980099
0.0223980099
0.0223980099
0.869478911
0.869478911
0.869478911
0.869478911
0.683476673
0.683476673
0.683476673
0.683476673
0.534925211
0.534925211
0.534925211
0.534925211
0.41568472
0.41568472
0.41568472
0.41568472
0.319221473
0.319221473
0.319221473
0.319221473
0.240249815
0.240249815
0.240249815
0.240249815
0.17444253
0.17444253
0.17444253
0.17444253
0.118193739
0.118193739
0.118193739
0.118193739
0.0684213178
0.0684213178
0.0684213178
0.0684213178
0.0223980099
0.0223980099
0.0223980099
0.0223980099
0.869478911
0.869478911
0.869478911
0.869478911
0.683476673
0.683476673
0.683476673
0.683476673
0.534925211
0.534925211
0.534925211
0.534925211
0.41568472
0.41568472
0.41568472
0.41568472
0.319221473
0.319221473
0.319221473
0.319221473
0.240249815
0.240249815
0.240249815
0.240249815
0.17444253
0.17444253
0.17444253
0.17444253
0.118193739
0.118193739
0.118193739
0.118193739
0.0684213178
0.0684213178
0.0684213178
0.0684213178
0.0223980099
0.0223980099
0.0223980099
0.0223980099
0.869478911
0.869478911
0.869478911
0.869478911
0.683476673
0.683476673
0.683476673
0.683476673
0.534925211
0.534925211
0.534925211
0.534925211
0.41568472
0.41568472
0.41568472
0.41568472
0.319221473
0.319221473
0.319221473
0.319221473
0.240249815
0.240249815
0.240249815
0.240249815
0.17444253
0.17444253
0.17444253
0.17444253
0.118193739
0.118193739
0.118193739
0.118193739
0.0684213178
0.0684213178
0.0684213178
0.0684213178
0.0223980099
0.0223980099
0.0223980099
0.0223980099
0.869478911
0.869478911
0.869478911
0.869478911
0.683476673
0.683476673
0.683476673
0.683476673
0.534925211
0.534925211
0.534925211
0.534925211
0.41568472
0.41568472
0.41568472
0.41568472
0.319221473
0.319221473
0.319221473
0.319221473
0.240249815
0.240249815
0.240249815
0.240249815
0.17444253
0.17444253
0.17444253
0.17444253
0.118193739
0.118193739
0.118193739
0.118193739
0.0684213178
0.0684213178
0.0684213178
0.0684213178
0.0223980099
0.0223980099
0.0223980099
0.0223980099
0.869478911
0.869478911
0.869478911
0.869478911
0.683476673
0.683476673
0.683476673
0.683476673
0.534925211
0.534925211
0.534925211
0.534925211
0.41568472
0.41568472
0.41568472
0.41568472
0.319221473
0.319221473
0.319221473
0.319221473
0.240249815
0.240249815
0.240249815
0.240249815