<VTKFile type="UnstructuredGrid" version="2.2" byte_order="LittleEndian">
<UnstructuredGrid>
<Piece NumberOfPoints="100" NumberOfCells="25">
<Points>
<DataArray type="Float64" NumberOfComponents="3" format="ascii">
0.5 0 0
0.6 0 0
0.5 0.1 0
0.6 0.1 0
0.6 0 0
0.7 0 0
0.6 0.1 0
0.7 0.1 0
0.7 0 0
0.8 0 0
0.7 0.1 0
0.8 0.1 0
0.8 0 0
0.9 0 0
0.8 0.1 0
0.9 0.1 0
0.9 0 0
1 0 0
0.9 0.1 0
1 0.1 0
0.5 0.1 0
0.6 0.1 0
0.5 0.2 0
0.6 0.2 0
0.6 0.1 0
0.7 0.1 0
0.6 0.2 0
0.7 0.2 0
0.7 0.1 0
0.8 0.1 0
0.7 0.2 0
0.8 0.2 0
0.8 0.1 0
0.9 0.1 0
0.8 0.2 0
0.9 0.2 0
0.9 0.1 0
1 0.1 0
0.9 0.2 0
1 0.2 0
0.5 0.2 0
0.6 0.2 0
0.5 0.3 0
0.6 0.3 0
0.6 0.2 0
0.7 0.2 0
0.6 0.3 0
0.7 0.3 0
0.7 0.2 0
0.8 0.2 0
0.7 0.3 0
0.8 0.3 0
0.8 0.2 0
0.9 0.2 0
0.8 0.3 0
0.9 0.3 0
0.9 0.2 0
1 0.2 0
0.9 0.3 0
1 0.3 0
0.5 0.3 0
0.6 0.3 0
0.5 0.4 0
0.6 0.4 0
0.6 0.3 0
0.7 0.3 0
0.6 0.4 0
0.7 0.4 0
0.7 0.3 0
0.8 0.3 0
0.7 0.4 0
0.8 0.4 0
0.8 0.3 0
0.9 0.3 0
0.8 0.4 0
0.9 0.4 0
0.9 0.3 0
1 0.3 0
0.9 0.4 0
1 0.4 0
0.5 0.4 0
0.6 0.4 0
0.5 0.5 0
0.6 0.5 0
0.6 0.4 0
0.7 0.4 0
0.6 0.5 0
0.7 0.5 0
0.7 0.4 0
0.8 0.4 0
0.7 0.5 0
0.8 0.5 0
0.8 0.4 0
0.9 0.4 0
0.8 0.5 0
0.9 0.5 0
0.9 0.4 0
1 0.4 0
0.9 0.5 0
1 0.5 0
</DataArray>
</Points>
<Cells>
<DataArray type="Int32" Name="connectivity" format="ascii">
0 1 3 2 
4 5 7 6 
8 9 11 10 
12 13 15 14 
16 17 19 18 
20 21 23 22 
24 25 27 26 
28 29 31 30 
32 33 35 34 
36 37 39 38 
40 41 43 42 
44 45 47 46 
48 49 51 50 
52 53 55 54 
56 57 59 58 
60 61 63 62 
64 65 67 66 
68 69 71 70 
72 73 75 74 
76 77 79 78 
80 81 83 82 
84 85 87 86 
88 89 91 90 
92 93 95 94 
96 97 99 98 
</DataArray>
<DataArray type="Int32" Name="offsets" format="ascii">
4
8
12
16
20
24
28
32
36
40
44
48
52
56
60
64
68
72
76
80
84
88
92
96
100
</DataArray>
<DataArray type="UInt8" Name="types" format="ascii">
9
9
9
9
9
9
9
9
9
9
9
9
9
9
9
9
9
9
9
9
9
9
9
9
9
</DataArray>
</Cells>
<CellData Scalars="attribute">
<DataArray type="Int32" Name="attribute" format="ascii">
1
1
1
1
1
1
1
1
1
1
1
1
1
1
1
1
1
1
1
1
1
1
1
1
1
</DataArray>
</CellData>
<PointData >
<DataArray type="Float64" Name="div_heat_flux" NumberOfComponents="1"  format="ascii" >
-8.00832716
-8.00832716
-8.00832716
-8.00832716
-5.81475098
-5.81475098
-5.81475098
-5.81475098
-3.9397913
-3.9397913
-3.9397913
-3.9397913
-2.28071059
-2.28071059
-2.28071059
-2.28071059
-0.746600329
-0.746600329
-0.746600329
-0.746600329
-8.00832716
-8.00832716
-8.00832716
-8.00832716
-5.81475098
-5.81475098
-5.81475098
-5.81475098
-3.9397913
-3.9397913
-3.9397913
-3.9397913
-2.28071059
-2.28071059
-2.28071059
-2.28071059
-0.746600329
-0.746600329
-0.746600329
-0.746600329
-8.00832716
-8.00832716
-8.00832716
-8.00832716
-5.81475098
-5.81475098
-5.81475098
-5.81475098
-3.9397913
-3.9397913
-3.9397913
-3.9397913
-2.28071059
-2.28071059
-2.28071059
-2.28071059
-0.746600329
-0.746600329
-0.746600329
-0.746600329
-8.00832716
-8.00832716
-8.00832716
-8.00832716
-5.81475098
-5.81475098
-5.81475098
-5.81475098
-3.9397913
-3.9397913
-3.9397913
-3.9397913
-2.28071059
-2.28071059
-2.28071059
-2.28071059
-0.746600329
-0.746600329
-0.746600329
-0.746600329
-8.00832716
-8.00832716
-8.00832716
-8.00832716
-5.81475098
-5.81475098
-5.81475098
-5.81475098
-3.9397913
-3.9397913
-3.9397913
-3.9397913
-2.28071059
-2.28071059
-2.28071059
-2.28071059
-0.746600329
-0.746600329
-0.746600329
-0.746600329
</DataArray>
<DataArray type="Float64" Name="dtemperature_dt" NumberOfComponents="1"  format="ascii" >
8.00832716
8.00832716
8.00832716
8.00832716
5.81475098
5.81475098
5.81475098
5.81475098
3.9397913
3.9397913
3.9397913
3.9397913
2.28071059
2.28071059
2.28071059
2.28071059
0.746600329
0.746600329
0.746600329
0.746600329
8.00832716
8.00832716
8.00832716
8.00832716
5.81475098
5.81475098
5.81475098
5.81475098
3.9397913
3.9397913
3.9397913
3.9397913
2.28071059
2.28071059
2.28071059
2.28071059
0.746600329
0.746600329
0.746600329
0.746600329
8.00832716
8.00832716
8.00832716
8.00832716
5.81475098
5.81475098
5.81475098
5.81475098
3.9397913
3.9397913
3.9397913
3.9397913
2.28071059
2.28071059
2.28071059
2.28071059
0.746600329
0.746600329
0.746600329
0.746600329
8.00832716
8.00832716
8.00832716
8.00832716
5.81475098
5.81475098
5.81475098
5.81475098
3.9397913
3.9397913
3.9397913
3.9397913
2.28071059
2.28071059
2.28071059
2.28071059
0.746600329
0.746600329
0.746600329
0.746600329
8.00832716
8.00832716
8.00832716
8.00832716
5.81475098
5.81475098
5.81475098
5.81475098
3.9397913
3.9397913
3.9397913
3.9397913
2.28071059
2.28071059
2.28071059
2.28071059
0.746600329
0.746600329
0.746600329
0.746600329
</DataArray>
<DataArray type="Float64" Name="heat_flux" NumberOfComponents="2" ComponentName0="0" ComponentName1="1" format="ascii" >
4.80410924 0 
4.00327652 0 
4.80410924 -1.95975838e-15 
4.00327652 9.21675672e-16 
4.00327652 0 
3.42180142 0 
4.00327652 4.46874342e-16 
3.42180142 -5.28674135e-16 
3.42180142 0 
3.02782229 0 
3.42180142 7.01453729e-17 
3.02782229 3.12832847e-16 
3.02782229 0 
2.79975123 0 
3.02782229 7.68004997e-17 
2.79975123 -5.23298958e-16 
2.79975123 0 
2.7250912 0 
2.79975123 -1.0728803e-16 
2.7250912 6.11614869e-16 
4.80410924 -1.95975838e-15 
4.00327652 9.21675672e-16 
4.80410924 -1.11806087e-15 
4.00327652 -4.40493861e-16 
4.00327652 4.46874342e-16 
3.42180142 -5.28674135e-16 
4.00327652 -1.18229421e-16 
3.42180142 2.16659904e-16 
3.42180142 7.01453729e-17 
3.02782229 3.12832847e-16 
3.42180142 -3.63315779e-16 
3.02782229 5.38646543e-16 
3.02782229 7.68004997e-17 
2.79975123 -5.23298958e-16 
3.02782229 -1.15326264e-16 
2.79975123 -1.53144053e-16 
2.79975123 -1.0728803e-16 
2.7250912 6.11614869e-16 
2.79975123 6.66266282e-17 
2.7250912 7.43591031e-16 
4.80410924 -1.11806087e-15 
4.00327652 -4.40493861e-16 
4.80410924 -1.79392424e-15 
4.00327652 -9.27065591e-16 
4.00327652 -1.18229421e-16 
3.42180142 2.16659904e-16 
4.00327652 -4.21200508e-16 
3.42180142 5.55947287e-16 
3.42180142 -3.63315779e-16 
3.02782229 5.38646543e-16 
3.42180142 3.50344409e-16 
3.02782229 1.02536558e-15 
3.02782229 -1.15326264e-16 
2.79975123 -1.53144053e-16 
3.02782229 2.30797221e-18 
2.79975123 -8.72029638e-16 
2.79975123 6.66266282e-17 
2.7250912 7.43591031e-16 
2.79975123 -1.49320601e-16 
2.7250912 9.48181361e-16 
4.80410924 -1.79392424e-15 
4.00327652 -9.27065591e-16 
4.80410924 -3.18080629e-15 
4.00327652 -1.61637976e-16 
4.00327652 -4.21200508e-16 
3.42180142 5.55947287e-16 
4.00327652 -1.62080957e-16 
3.42180142 -1.54443131e-16 
3.42180142 3.50344409e-16 
3.02782229 1.02536558e-15 
3.42180142 -7.0697169e-17 
3.02782229 5.54016447e-16 
3.02782229 2.30797221e-18 
2.79975123 -8.72029638e-16 
3.02782229 5.13731949e-16 
2.79975123 -8.71527032e-16 
2.79975123 -1.49320601e-16 
2.7250912 9.48181361e-16 
2.79975123 -1.16091721e-16 
2.7250912 6.49285007e-16 
4.80410924 -3.18080629e-15 
4.00327652 -1.61637976e-16 
4.80410924 -3.24370647e-15 
4.00327652 1.8436745e-17 
4.00327652 -1.62080957e-16 
3.42180142 -1.54443131e-16 
4.00327652 2.17029545e-16 
3.42180142 -4.59868806e-16 
3.42180142 -7.0697169e-17 
3.02782229 5.54016447e-16 
3.42180142 -3.46675858e-16 
3.02782229 1.54379242e-15 
3.02782229 5.13731949e-16 
2.79975123 -8.71527032e-16 
3.02782229 2.38261491e-16 
2.79975123 -1.68807454e-15 
2.79975123 -1.16091721e-16 
2.7250912 6.49285007e-16 
2.79975123 1.7424744e-16 
2.7250912 1.11640961e-15 
</DataArray>
<DataArray type="Float64" Name="temperature" NumberOfComponents="1"  format="ascii" >
0.240249815
0.240249815
0.240249815
0.240249815
0.17444253
0.17444253
0.17444253
0.17444253
0.118193739
0.118193739
0.118193739
0.118193739
0.0684213178
0.0684213178
0.0684213178
0.0684213178
0.0223980099
0.0223980099
0.0223980099
0.0223980099
0.240249815
0.240249815
0.240249815
0.240249815
0.17444253
0.17444253
0.17444253
0.17444253
0.118193739
0.118193739
0.118193739
0.118193739
0.0684213178
0.0684213178
0.0684213178
0.0684213178
0.0223980099
0.0223980099
0.0223980099
0.0223980099
0.240249815
0.240249815
0.240249815
0.240249815
0.17444253
0.17444253
0.17444253
0.17444253
0.118193739
0.118193739
0.118193739
0.118193739
0.0684213178
0.0684213178
0.0684213178
0.0684213178
0.0223980099
0.0223980099
0.0223980099
0.0223980099
0.240249815
0.240249815
0.240249815
0.240249815
0.17444253
0.17444253
0.17444253
0.17444253
0.118193739
0.118193739
0.118193739
0.118193739
0.0684213178
0.0684213178
0.0684213178
0.0684213178
0.0223980099
0.0223980099
0.0223980099
0.0223980099
0.240249815
0.240249815
0.240249815
0.240249815
0.17444253
0.17444253
0.17444253
0.17444253
0.118193739
0.118193739
0.118193739
0.118193739
0.0684213178
0.0684213178
0.0684213178
0.0684213178
0.0223980099
0.0223980099
0.0223980099
0.0223980099
</DataArray>
<DataArray type="Float64" Name="time_integrated_heat_flux" NumberOfComponents="2" ComponentName0="0" ComponentName1="1" format="ascii" >
0.144123277 0 
0.120098296 0 
0.144123277 -5.87927514e-17 
0.120098296 2.76502702e-17 
0.120098296 0 
0.102654043 0 
0.120098296 1.34062302e-17 
0.102654043 -1.5860224e-17 
0.102654043 0 
0.0908346687 0 
0.102654043 2.10436119e-18 
0.0908346687 9.38498542e-18 
0.0908346687 0 
0.083992537 0 
0.0908346687 2.30401499e-18 
0.083992537 -1.56989687e-17 
0.083992537 0 
0.081752736 0 
0.083992537 -3.2186409e-18 
0.081752736 1.83484461e-17 
0.144123277 -5.87927514e-17 
0.120098296 2.76502702e-17 
0.144123277 -3.3541826e-17 
0.120098296 -1.32148158e-17 
0.120098296 1.34062302e-17 
0.102654043 -1.5860224e-17 
0.120098296 -3.54688262e-18 
0.102654043 6.49979712e-18 
0.102654043 2.10436119e-18 
0.0908346687 9.38498542e-18 
0.102654043 -1.08994734e-17 
0.0908346687 1.61593963e-17 
0.0908346687 2.30401499e-18 
0.083992537 -1.56989687e-17 
0.0908346687 -3.45978793e-18 
0.083992537 -4.59432159e-18 
0.083992537 -3.2186409e-18 
0.081752736 1.83484461e-17 
0.083992537 1.99879885e-18 
0.081752736 2.23077309e-17 
0.144123277 -3.3541826e-17 
0.120098296 -1.32148158e-17 
0.144123277 -5.38177271e-17 
0.120098296 -2.78119677e-17 
0.120098296 -3.54688262e-18 
0.102654043 6.49979712e-18 
0.120098296 -1.26360152e-17 
0.102654043 1.66784186e-17 
0.102654043 -1.08994734e-17 
0.0908346687 1.61593963e-17 
0.102654043 1.05103323e-17 
0.0908346687 3.07609674e-17 
0.0908346687 -3.45978793e-18 
0.083992537 -4.59432159e-18 
0.0908346687 6.92391664e-20 
0.083992537 -2.61608891e-17 
0.083992537 1.99879885e-18 
0.081752736 2.23077309e-17 
0.083992537 -4.47961802e-18 
0.081752736 2.84454408e-17 
0.144123277 -5.38177271e-17 
0.120098296 -2.78119677e-17 
0.144123277 -9.54241886e-17 
0.120098296 -4.84913929e-18 
0.120098296 -1.26360152e-17 
0.102654043 1.66784186e-17 
0.120098296 -4.86242872e-18 
0.102654043 -4.63329393e-18 
0.102654043 1.05103323e-17 
0.0908346687 3.07609674e-17 
0.102654043 -2.12091507e-18 
0.0908346687 1.66204934e-17 
0.0908346687 6.92391664e-20 
0.083992537 -2.61608891e-17 
0.0908346687 1.54119585e-17 
0.083992537 -2.6145811e-17 
0.083992537 -4.47961802e-18 
0.081752736 2.84454408e-17 
0.083992537 -3.48275164e-18 
0.081752736 1.94785502e-17 
0.144123277 -9.54241886e-17 
0.120098296 -4.84913929e-18 
0.144123277 -9.7311194e-17 
0.120098296 5.53102349e-19 
0.120098296 -4.86242872e-18 
0.102654043 -4.63329393e-18 
0.120098296 6.51088636e-18 
0.102654043 -1.37960642e-17 
0.102654043 -2.12091507e-18 
0.0908346687 1.66204934e-17 
0.102654043 -1.04002757e-17 
0.0908346687 4.63137726e-17 
0.0908346687 1.54119585e-17 
0.083992537 -2.6145811e-17 
0.0908346687 7.14784472e-18 
0.083992537 -5.06422362e-17 
0.083992537 -3.48275164e-18 
0.081752736 1.94785502e-17 
0.083992537 5.22742319e-18 
0.081752736 3.34922883e-17 
</DataArray>
</PointData>
</Piece>
</UnstructuredGrid>
</VTKFile>
