<VTKFile type="UnstructuredGrid" version="2.2" byte_order="LittleEndian">
<UnstructuredGrid>
<Piece NumberOfPoints="400" NumberOfCells="100">
<Points>
<DataArray type="Float64" NumberOfComponents="3" format="ascii">
0 0 0
0.1 0 0
0 0.1 0
0.1 0.1 0
0.1 0 0
0.2 0 0
0.1 0.1 0
0.2 0.1 0
0.2 0 0
0.3 0 0
0.2 0.1 0
0.3 0.1 0
0.3 0 0
0.4 0 0
0.3 0.1 0
0.4 0.1 0
0.4 0 0
0.5 0 0
0.4 0.1 0
0.5 0.1 0
0.5 0 0
0.6 0 0
0.5 0.1 0
0.6 0.1 0
0.6 0 0
0.7 0 0
0.6 0.1 0
0.7 0.1 0
0.7 0 0
0.8 0 0
0.7 0.1 0
0.8 0.1 0
0.8 0 0
0.9 0 0
0.8 0.1 0
0.9 0.1 0
0.9 0 0
1 0 0
0.9 0.1 0
1 0.1 0
0 0.1 0
0.1 0.1 0
0 0.2 0
0.1 0.2 0
0.1 0.1 0
0.2 0.1 0
0.1 0.2 0
0.2 0.2 0
0.2 0.1 0
0.3 0.1 0
0.2 0.2 0
0.3 0.2 0
0.3 0.1 0
0.4 0.1 0
0.3 0.2 0
0.4 0.2 0
0.4 0.1 0
0.5 0.1 0
0.4 0.2 0
0.5 0.2 0
0.5 0.1 0
0.6 0.1 0
0.5 0.2 0
0.6 0.2 0
0.6 0.1 0
0.7 0.1 0
0.6 0.2 0
0.7 0.2 0
0.7 0.1 0
0.8 0.1 0
0.7 0.2 0
0.8 0.2 0
0.8 0.1 0
0.9 0.1 0
0.8 0.2 0
0.9 0.2 0
0.9 0.1 0
1 0.1 0
0.9 0.2 0
1 0.2 0
0 0.2 0
0.1 0.2 0
0 0.3 0
0.1 0.3 0
0.1 0.2 0
0.2 0.2 0
0.1 0.3 0
0.2 0.3 0
0.2 0.2 0
0.3 0.2 0
0.2 0.3 0
0.3 0.3 0
0.3 0.2 0
0.4 0.2 0
0.3 0.3 0
0.4 0.3 0
0.4 0.2 0
0.5 0.2 0
0.4 0.3 0
0.5 0.3 0
0.5 0.2 0
0.6 0.2 0
0.5 0.3 0
0.6 0.3 0
0.6 0.2 0
0.7 0.2 0
0.6 0.3 0
0.7 0.3 0
0.7 0.2 0
0.8 0.2 0
0.7 0.3 0
0.8 0.3 0
0.8 0.2 0
0.9 0.2 0
0.8 0.3 0
0.9 0.3 0
0.9 0.2 0
1 0.2 0
0.9 0.3 0
1 0.3 0
0 0.3 0
0.1 0.3 0
0 0.4 0
0.1 0.4 0
0.1 0.3 0
0.2 0.3 0
0.1 0.4 0
0.2 0.4 0
0.2 0.3 0
0.3 0.3 0
0.2 0.4 0
0.3 0.4 0
0.3 0.3 0
0.4 0.3 0
0.3 0.4 0
0.4 0.4 0
0.4 0.3 0
0.5 0.3 0
0.4 0.4 0
0.5 0.4 0
0.5 0.3 0
0.6 0.3 0
0.5 0.4 0
0.6 0.4 0
0.6 0.3 0
0.7 0.3 0
0.6 0.4 0
0.7 0.4 0
0.7 0.3 0
0.8 0.3 0
0.7 0.4 0
0.8 0.4 0
0.8 0.3 0
0.9 0.3 0
0.8 0.4 0
0.9 0.4 0
0.9 0.3 0
1 0.3 0
0.9 0.4 0
1 0.4 0
0 0.4 0
0.1 0.4 0
0 0.5 0
0.1 0.5 0
0.1 0.4 0
0.2 0.4 0
0.1 0.5 0
0.2 0.5 0
0.2 0.4 0
0.3 0.4 0
0.2 0.5 0
0.3 0.5 0
0.3 0.4 0
0.4 0.4 0
0.3 0.5 0
0.4 0.5 0
0.4 0.4 0
0.5 0.4 0
0.4 0.5 0
0.5 0.5 0
0.5 0.4 0
0.6 0.4 0
0.5 0.5 0
0.6 0.5 0
0.6 0.4 0
0.7 0.4 0
0.6 0.5 0
0.7 0.5 0
0.7 0.4 0
0.8 0.4 0
0.7 0.5 0
0.8 0.5 0
0.8 0.4 0
0.9 0.4 0
0.8 0.5 0
0.9 0.5 0
0.9 0.4 0
1 0.4 0
0.9 0.5 0
1 0.5 0
0 0.5 0
0.1 0.5 0
0 0.6 0
0.1 0.6 0
0.1 0.5 0
0.2 0.5 0
0.1 0.6 0
0.2 0.6 0
0.2 0.5 0
0.3 0.5 0
0.2 0.6 0
0.3 0.6 0
0.3 0.5 0
0.4 0.5 0
0.3 0.6 0
0.4 0.6 0
0.4 0.5 0
0.5 0.5 0
0.4 0.6 0
0.5 0.6 0
0.5 0.5 0
0.6 0.5 0
0.5 0.6 0
0.6 0.6 0
0.6 0.5 0
0.7 0.5 0
0.6 0.6 0
0.7 0.6 0
0.7 0.5 0
0.8 0.5 0
0.7 0.6 0
0.8 0.6 0
0.8 0.5 0
0.9 0.5 0
0.8 0.6 0
0.9 0.6 0
0.9 0.5 0
1 0.5 0
0.9 0.6 0
1 0.6 0
0 0.6 0
0.1 0.6 0
0 0.7 0
0.1 0.7 0
0.1 0.6 0
0.2 0.6 0
0.1 0.7 0
0.2 0.7 0
0.2 0.6 0
0.3 0.6 0
0.2 0.7 0
0.3 0.7 0
0.3 0.6 0
0.4 0.6 0
0.3 0.7 0
0.4 0.7 0
0.4 0.6 0
0.5 0.6 0
0.4 0.7 0
0.5 0.7 0
0.5 0.6 0
0.6 0.6 0
0.5 0.7 0
0.6 0.7 0
0.6 0.6 0
0.7 0.6 0
0.6 0.7 0
0.7 0.7 0
0.7 0.6 0
0.8 0.6 0
0.7 0.7 0
0.8 0.7 0
0.8 0.6 0
0.9 0.6 0
0.8 0.7 0
0.9 0.7 0
0.9 0.6 0
1 0.6 0
0.9 0.7 0
1 0.7 0
0 0.7 0
0.1 0.7 0
0 0.8 0
0.1 0.8 0
0.1 0.7 0
0.2 0.7 0
0.1 0.8 0
0.2 0.8 0
0.2 0.7 0
0.3 0.7 0
0.2 0.8 0
0.3 0.8 0
0.3 0.7 0
0.4 0.7 0
0.3 0.8 0
0.4 0.8 0
0.4 0.7 0
0.5 0.7 0
0.4 0.8 0
0.5 0.8 0
0.5 0.7 0
0.6 0.7 0
0.5 0.8 0
0.6 0.8 0
0.6 0.7 0
0.7 0.7 0
0.6 0.8 0
0.7 0.8 0
0.7 0.7 0
0.8 0.7 0
0.7 0.8 0
0.8 0.8 0
0.8 0.7 0
0.9 0.7 0
0.8 0.8 0
0.9 0.8 0
0.9 0.7 0
1 0.7 0
0.9 0.8 0
1 0.8 0
0 0.8 0
0.1 0.8 0
0 0.9 0
0.1 0.9 0
0.1 0.8 0
0.2 0.8 0
0.1 0.9 0
0.2 0.9 0
0.2 0.8 0
0.3 0.8 0
0.2 0.9 0
0.3 0.9 0
0.3 0.8 0
0.4 0.8 0
0.3 0.9 0
0.4 0.9 0
0.4 0.8 0
0.5 0.8 0
0.4 0.9 0
0.5 0.9 0
0.5 0.8 0
0.6 0.8 0
0.5 0.9 0
0.6 0.9 0
0.6 0.8 0
0.7 0.8 0
0.6 0.9 0
0.7 0.9 0
0.7 0.8 0
0.8 0.8 0
0.7 0.9 0
0.8 0.9 0
0.8 0.8 0
0.9 0.8 0
0.8 0.9 0
0.9 0.9 0
0.9 0.8 0
1 0.8 0
0.9 0.9 0
1 0.9 0
0 0.9 0
0.1 0.9 0
0 1 0
0.1 1 0
0.1 0.9 0
0.2 0.9 0
0.1 1 0
0.2 1 0
0.2 0.9 0
0.3 0.9 0
0.2 1 0
0.3 1 0
0.3 0.9 0
0.4 0.9 0
0.3 1 0
0.4 1 0
0.4 0.9 0
0.5 0.9 0
0.4 1 0
0.5 1 0
0.5 0.9 0
0.6 0.9 0
0.5 1 0
0.6 1 0
0.6 0.9 0
0.7 0.9 0
0.6 1 0
0.7 1 0
0.7 0.9 0
0.8 0.9 0
0.7 1 0
0.8 1 0
0.8 0.9 0
0.9 0.9 0
0.8 1 0
0.9 1 0
0.9 0.9 0
1 0.9 0
0.9 1 0
1 1 0
</DataArray>
</Points>
<Cells>
<DataArray type="Int32" Name="connectivity" format="ascii">
0 1 3 2 
4 5 7 6 
8 9 11 10 
12 13 15 14 
16 17 19 18 
20 21 23 22 
24 25 27 26 
28 29 31 30 
32 33 35 34 
36 37 39 38 
40 41 43 42 
44 45 47 46 
48 49 51 50 
52 53 55 54 
56 57 59 58 
60 61 63 62 
64 65 67 66 
68 69 71 70 
72 73 75 74 
76 77 79 78 
80 81 83 82 
84 85 87 86 
88 89 91 90 
92 93 95 94 
96 97 99 98 
100 101 103 102 
104 105 107 106 
108 109 111 110 
112 113 115 114 
116 117 119 118 
120 121 123 122 
124 125 127 126 
128 129 131 130 
132 133 135 134 
136 137 139 138 
140 141 143 142 
144 145 147 146 
148 149 151 150 
152 153 155 154 
156 157 159 158 
160 161 163 162 
164 165 167 166 
168 169 171 170 
172 173 175 174 
176 177 179 178 
180 181 183 182 
184 185 187 186 
188 189 191 190 
192 193 195 194 
196 197 199 198 
200 201 203 202 
204 205 207 206 
208 209 211 210 
212 213 215 214 
216 217 219 218 
220 221 223 222 
224 225 227 226 
228 229 231 230 
232 233 235 234 
236 237 239 238 
240 241 243 242 
244 245 247 246 
248 249 251 250 
252 253 255 254 
256 257 259 258 
260 261 263 262 
264 265 267 266 
268 269 271 270 
272 273 275 274 
276 277 279 278 
280 281 283 282 
284 285 287 286 
288 289 291 290 
292 293 295 294 
296 297 299 298 
300 301 303 302 
304 305 307 306 
308 309 311 310 
312 313 315 314 
316 317 319 318 
320 321 323 322 
324 325 327 326 
328 329 331 330 
332 333 335 334 
336 337 339 338 
340 341 343 342 
344 345 347 346 
348 349 351 350 
352 353 355 354 
356 357 359 358 
360 361 363 362 
364 365 367 366 
368 369 371 370 
372 373 375 374 
376 377 379 378 
380 381 383 382 
384 385 387 386 
388 389 391 390 
392 393 395 394 
396 397 399 398 
</DataArray>
<DataArray type="Int32" Name="offsets" format="ascii">
4
8
12
16
20
24
28
32
36
40
44
48
52
56
60
64
68
72
76
80
84
88
92
96
100
104
108
112
116
120
124
128
132
136
140
144
148
152
156
160
164
168
172
176
180
184
188
192
196
200
204
208
212
216
220
224
228
232
236
240
244
248
252
256
260
264
268
272
276
280
284
288
292
296
300
304
308
312
316
320
324
328
332
336
340
344
348
352
356
360
364
368
372
376
380
384
388
392
396
400
</DataArray>
<DataArray type="UInt8" Name="types" format="ascii">
9
9
9
9
9
9
9
9
9
9
9
9
9
9
9
9
9
9
9
9
9
9
9
9
9
9
9
9
9
9
9
9
9
9
9
9
9
9
9
9
9
9
9
9
9
9
9
9
9
9
9
9
9
9
9
9
9
9
9
9
9
9
9
9
9
9
9
9
9
9
9
9
9
9
9
9
9
9
9
9
9
9
9
9
9
9
9
9
9
9
9
9
9
9
9
9
9
9
9
9
</DataArray>
</Cells>
<CellData Scalars="attribute">
<DataArray type="Int32" Name="attribute" format="ascii">
1
1
1
1
1
1
1
1
1
1
1
1
1
1
1
1
1
1
1
1
1
1
1
1
1
1
1
1
1
1
1
1
1
1
1
1
1
1
1
1
1
1
1
1
1
1
1
1
1
1
1
1
1
1
1
1
1
1
1
1
1
1
1
1
1
1
1
1
1
1
1
1
1
1
1
1
1
1
1
1
1
1
1
1
1
1
1
1
1
1
1
1
1
1
1
1
1
1
1
1
</DataArray>
</CellData>
<PointData >
<DataArray type="Float64" Name="dtemperature_dt" NumberOfComponents="1"  format="ascii" >
32.5896141
18.0503067
32.5896141
18.0503067
18.295735
10.1329261
18.295735
10.1329261
10.2707211
5.68749943
10.2707211
5.68749943
5.76487516
3.19084204
5.76487516
3.19084204
3.23431065
1.78749731
3.23431065
1.78749731
1.81195293
0.996622082
1.81195293
0.996622082
1.01044419
0.547230234
1.01044419
0.547230234
0.555154851
0.285341789
0.555154851
0.285341789
0.290084213
0.121223082
0.290084213
0.121223082
0.12440826
-0.00135965312
0.12440826
-0.00135965312
32.5896141
18.0503067
32.5896141
18.0503067
18.295735
10.1329261
18.295735
10.1329261
10.2707211
5.68749943
10.2707211
5.68749943
5.76487516
3.19084204
5.76487516
3.19084204
3.23431065
1.78749731
3.23431065
1.78749731
1.81195293
0.996622082
1.81195293
0.996622082
1.01044419
0.547230234
1.01044419
0.547230234
0.555154851
0.285341789
0.555154851
0.285341789
0.290084213
0.121223082
0.290084213
0.121223082
0.12440826
-0.00135965312
0.12440826
-0.00135965312
32.5896141
18.0503067
32.5896141
18.0503067
18.295735
10.1329261
18.295735
10.1329261
10.2707211
5.68749943
10.2707211
5.68749943
5.76487516
3.19084204
5.76487516
3.19084204
3.23431065
1.78749731
3.23431065
1.78749731
1.81195293
0.996622082
1.81195293
0.996622082
1.01044419
0.547230234
1.01044419
0.547230234
0.555154851
0.285341789
0.555154851
0.285341789
0.290084213
0.121223082
0.290084213
0.121223082
0.12440826
-0.00135965312
0.12440826
-0.00135965312
32.5896141
18.0503067
32.5896141
18.0503067
18.295735
10.1329261
18.295735
10.1329261
10.2707211
5.68749943
10.2707211
5.68749943
5.76487516
3.19084204
5.76487516
3.19084204
3.23431065
1.78749731
3.23431065
1.78749731
1.81195293
0.996622082
1.81195293
0.996622082
1.01044419
0.547230234
1.01044419
0.547230234
0.555154851
0.285341789
0.555154851
0.285341789
0.290084213
0.121223082
0.290084213
0.121223082
0.12440826
-0.00135965312
0.12440826
-0.00135965312
32.5896141
18.0503067
32.5896141
18.0503067
18.295735
10.1329261
18.295735
10.1329261
10.2707211
5.68749943
10.2707211
5.68749943
5.76487516
3.19084204
5.76487516
3.19084204
3.23431065
1.78749731
3.23431065
1.78749731
1.81195293
0.996622082
1.81195293
0.996622082
1.01044419
0.547230234
1.01044419
0.547230234
0.555154851
0.285341789
0.555154851
0.285341789
0.290084213
0.121223082
0.290084213
0.121223082
0.12440826
-0.00135965312
0.12440826
-0.00135965312
32.5896141
18.0503067
32.5896141
18.0503067
18.295735
10.1329261
18.295735
10.1329261
10.2707211
5.68749943
10.2707211
5.68749943
5.76487516
3.19084204
5.76487516
3.19084204
3.23431065
1.78749731
3.23431065
1.78749731
1.81195293
0.996622082
1.81195293
0.996622082
1.01044419
0.547230234
1.01044419
0.547230234
0.555154851
0.285341789
0.555154851
0.285341789
0.290084213
0.121223082
0.290084213
0.121223082
0.12440826
-0.00135965312
0.12440826
-0.00135965312
32.5896141
18.0503067
32.5896141
18.0503067
18.295735
10.1329261
18.295735
10.1329261
10.2707211
5.68749943
10.2707211
5.68749943
5.76487516
3.19084204
5.76487516
3.19084204
3.23431065
1.78749731
3.23431065
1.78749731
1.81195293
0.996622082
1.81195293
0.996622082
1.01044419
0.547230234
1.01044419
0.547230234
0.555154851
0.285341789
0.555154851
0.285341789
0.290084213
0.121223082
0.290084213
0.121223082
0.12440826
-0.00135965312
0.12440826
-0.00135965312
32.5896141
18.0503067
32.5896141
18.0503067
18.295735
10.1329261
18.295735
10.1329261
10.2707211
5.68749943
10.2707211
5.68749943
5.76487516
3.19084204
5.76487516
3.19084204
3.23431065
1.78749731
3.23431065
1.78749731
1.81195293
0.996622082
1.81195293
0.996622082
1.01044419
0.547230234
1.01044419
0.547230234
0.555154851
0.285341789
0.555154851
0.285341789
0.290084213
0.121223082
0.290084213
0.121223082
0.12440826
-0.00135965312
0.12440826
-0.00135965312
32.5896141
18.0503067
32.5896141
18.0503067
18.295735
10.1329261
18.295735
10.1329261
10.2707211
5.68749943
10.2707211
5.68749943
5.76487516
3.19084204
5.76487516
3.19084204
3.23431065
1.78749731
3.23431065
1.78749731
1.81195293
0.996622082
1.81195293
0.996622082
1.01044419
0.547230234
1.01044419
0.547230234
0.555154851
0.285341789
0.555154851
0.285341789
0.290084213
0.121223082
0.290084213
0.121223082
0.12440826
-0.00135965312
0.12440826
-0.00135965312
32.5896141
18.0503067
32.5896141
18.0503067
18.295735
10.1329261
18.295735
10.1329261
10.2707211
5.68749943
10.2707211
5.68749943
5.76487516
3.19084204
5.76487516
3.19084204
3.23431065
1.78749731
3.23431065
1.78749731
1.81195293
0.996622082
1.81195293
0.996622082
1.01044419
0.547230234
1.01044419
0.547230234
0.555154851
0.285341789
0.555154851
0.285341789
0.290084213
0.121223082
0.290084213
0.121223082
0.12440826
-0.00135965312
0.12440826
-0.00135965312
</DataArray>
<DataArray type="Float64" Name="heat_flux" NumberOfComponents="2" ComponentName0="0" ComponentName1="1" format="ascii" >
5.77318332 0 
3.24118728 0 
5.77318332 2.56367198e-15 
3.24118728 -2.05975029e-15 
3.24118728 0 
1.81975422 0 
3.24118728 1.44717683e-15 
1.81975422 -6.09001436e-16 
1.81975422 0 
1.02184319 0 
1.81975422 -1.04759388e-15 
1.02184319 3.57711831e-16 
1.02184319 0 
0.574057335 0 
1.02184319 1.2575451e-16 
0.574057335 -4.39881602e-16 
0.574057335 0 
0.322966937 0 
0.574057335 -3.39937905e-16 
0.322966937 2.03775216e-16 
0.322966937 0 
0.182538186 0 
0.322966937 7.26613671e-17 
0.182538186 -1.37756836e-16 
0.182538186 0 
0.104654465 0 
0.182538186 -3.15665453e-17 
0.104654465 7.00133716e-17 
0.104654465 0 
0.0626296331 0 
0.104654465 -8.49697218e-17 
0.0626296331 5.18914658e-17 
0.0626296331 0 
0.0420642684 0 
0.0626296331 3.43808929e-17 
0.0420642684 -2.73815866e-17 
0.0420642684 0 
0.035911838 0 
0.0420642684 7.62393505e-18 
0.035911838 -7.86775867e-18 
5.77318332 2.56367198e-15 
3.24118728 -2.05975029e-15 
5.77318332 -2.75811857e-16 
3.24118728 -3.86858787e-16 
3.24118728 1.44717683e-15 
1.81975422 -6.09001436e-16 
3.24118728 7.45962632e-16 
1.81975422 2.04686478e-16 
1.81975422 -1.04759388e-15 
1.02184319 3.57711831e-16 
1.81975422 2.88384688e-16 
1.02184319 -3.59348792e-16 
1.02184319 1.2575451e-16 
0.574057335 -4.39881602e-16 
1.02184319 -4.37313295e-16 
0.574057335 1.13757529e-18 
0.574057335 -3.39937905e-16 
0.322966937 2.03775216e-16 
0.574057335 -2.41901421e-16 
0.322966937 -1.68496638e-16 
0.322966937 7.26613671e-17 
0.182538186 -1.37756836e-16 
0.322966937 -7.68779864e-17 
0.182538186 1.63392506e-16 
0.182538186 -3.15665453e-17 
0.104654465 7.00133716e-17 
0.182538186 -7.43276528e-17 
0.104654465 6.90673372e-17 
0.104654465 -8.49697218e-17 
0.0626296331 5.18914658e-17 
0.104654465 -8.47527026e-17 
0.0626296331 4.91481621e-17 
0.0626296331 3.43808929e-17 
0.0420642684 -2.73815866e-17 
0.0626296331 2.10011374e-17 
0.0420642684 6.9655648e-18 
0.0420642684 7.62393505e-18 
0.035911838 -7.86775867e-18 
0.0420642684 -1.42784595e-17 
0.035911838 7.601193e-18 
5.77318332 -2.75811857e-16 
3.24118728 -3.86858787e-16 
5.77318332 1.33907664e-15 
3.24118728 -1.16323967e-15 
3.24118728 7.45962632e-16 
1.81975422 2.04686478e-16 
3.24118728 1.4774499e-15 
1.81975422 -6.54138479e-16 
1.81975422 2.88384688e-16 
1.02184319 -3.59348792e-16 
1.81975422 -6.29934006e-16 
1.02184319 7.71688301e-16 
1.02184319 -4.37313295e-16 
0.574057335 1.13757529e-18 
1.02184319 -1.66120963e-16 
0.574057335 -2.32648621e-16 
0.574057335 -2.41901421e-16 
0.322966937 -1.68496638e-16 
0.574057335 1.9127507e-16 
0.322966937 -3.47024871e-16 
0.322966937 -7.68779864e-17 
0.182538186 1.63392506e-16 
0.322966937 4.48142418e-17 
0.182538186 1.35922694e-16 
0.182538186 -7.43276528e-17 
0.104654465 6.90673372e-17 
0.182538186 6.62757664e-17 
0.104654465 5.52274618e-18 
0.104654465 -8.47527026e-17 
0.0626296331 4.91481621e-17 
0.104654465 -3.38518833e-17 
0.0626296331 6.46503453e-17 
0.0626296331 2.10011374e-17 
0.0420642684 6.9655648e-18 
0.0626296331 8.56833289e-18 
0.0420642684 -1.06088995e-17 
0.0420642684 -1.42784595e-17 
0.035911838 7.601193e-18 
0.0420642684 2.73696329e-18 
0.035911838 -4.63501583e-19 
5.77318332 1.33907664e-15 
3.24118728 -1.16323967e-15 
5.77318332 8.64305991e-16 
3.24118728 5.67544586e-16 
3.24118728 1.4774499e-15 
1.81975422 -6.54138479e-16 
3.24118728 7.72183587e-16 
1.81975422 9.67238556e-16 
1.81975422 -6.29934006e-16 
1.02184319 7.71688301e-16 
1.81975422 -1.16551187e-15 
1.02184319 5.74737259e-16 
1.02184319 -1.66120963e-16 
0.574057335 -2.32648621e-16 
1.02184319 -3.15015969e-16 
0.574057335 3.82147557e-16 
0.574057335 1.9127507e-16 
0.322966937 -3.47024871e-16 
0.574057335 -1.26959924e-16 
0.322966937 -3.99968087e-17 
0.322966937 4.48142418e-17 
0.182538186 1.35922694e-16 
0.322966937 -8.93592132e-17 
0.182538186 9.8629003e-17 
0.182538186 6.62757664e-17 
0.104654465 5.52274618e-18 
0.182538186 9.44029257e-17 
0.104654465 -1.83740808e-17 
0.104654465 -3.38518833e-17 
0.0626296331 6.46503453e-17 
0.104654465 -3.24630396e-17 
0.0626296331 2.3958934e-17 
0.0626296331 8.56833289e-18 
0.0420642684 -1.06088995e-17 
0.0626296331 2.95575666e-17 
0.0420642684 5.83865453e-18 
0.0420642684 2.73696329e-18 
0.035911838 -4.63501583e-19 
0.0420642684 -1.75126889e-17 
0.035911838 1.01348082e-17 
5.77318332 8.64305991e-16 
3.24118728 5.67544586e-16 
5.77318332 -3.23257337e-15 
3.24118728 3.4140853e-15 
3.24118728 7.72183587e-16 
1.81975422 9.67238556e-16 
3.24118728 1.60303438e-15 
1.81975422 -1.45682912e-16 
1.81975422 -1.16551187e-15 
1.02184319 5.74737259e-16 
1.81975422 4.89895118e-16 
1.02184319 5.58109337e-16 
1.02184319 -3.15015969e-16 
0.574057335 3.82147557e-16 
1.02184319 -6.24954626e-16 
0.574057335 4.92715392e-16 
0.574057335 -1.26959924e-16 
0.322966937 -3.99968087e-17 
0.574057335 4.46084484e-17 
0.322966937 -2.75665206e-17 
0.322966937 -8.93592132e-17 
0.182538186 9.8629003e-17 
0.322966937 -3.13321289e-16 
0.182538186 2.96597691e-16 
0.182538186 9.44029257e-17 
0.104654465 -1.83740808e-17 
0.182538186 -3.60006948e-17 
0.104654465 -4.26579483e-17 
0.104654465 -3.24630396e-17 
0.0626296331 2.3958934e-17 
0.104654465 9.73077226e-18 
0.0626296331 5.66304551e-17 
0.0626296331 2.95575666e-17 
0.0420642684 5.83865453e-18 
0.0626296331 -2.38067291e-18 
0.0420642684 4.41887957e-17 
0.0420642684 -1.75126889e-17 
0.035911838 1.01348082e-17 
0.0420642684 -4.10298492e-17 
0.035911838 1.7790781e-17 
5.77318332 -3.23257337e-15 
3.24118728 3.4140853e-15 
5.77318332 7.13072429e-15 
3.24118728 -2.4174736e-15 
3.24118728 1.60303438e-15 
1.81975422 -1.45682912e-16 
3.24118728 3.7398171e-15 
1.81975422 -2.19307588e-16 
1.81975422 4.89895118e-16 
1.02184319 5.58109337e-16 
1.81975422 -1.68131715e-16 
1.02184319 7.07292938e-16 
1.02184319 -6.24954626e-16 
0.574057335 4.92715392e-16 
1.02184319 1.28088465e-16 
0.574057335 2.34588927e-16 
0.574057335 4.46084484e-17 
0.322966937 -2.75665206e-17 
0.574057335 3.97094961e-16 
0.322966937 -5.17307158e-16 
0.322966937 -3.13321289e-16 
0.182538186 2.96597691e-16 
0.322966937 2.13802636e-16 
0.182538186 5.65337364e-17 
0.182538186 -3.60006948e-17 
0.104654465 -4.26579483e-17 
0.182538186 5.90877016e-17 
0.104654465 -7.48775803e-17 
0.104654465 9.73077226e-18 
0.0626296331 5.66304551e-17 
0.104654465 1.4805995e-16 
0.0626296331 -4.31523161e-17 
0.0626296331 -2.38067291e-18 
0.0420642684 4.41887957e-17 
0.0626296331 2.43178927e-17 
0.0420642684 1.86813742e-18 
0.0420642684 -4.10298492e-17 
0.035911838 1.7790781e-17 
0.0420642684 -9.21388828e-20 
0.035911838 -3.26571411e-18 
5.77318332 7.13072429e-15 
3.24118728 -2.4174736e-15 
5.77318332 -1.18945219e-15 
3.24118728 8.76041915e-16 
3.24118728 3.7398171e-15 
1.81975422 -2.19307588e-16 
3.24118728 1.11505689e-16 
1.81975422 1.07155221e-16 
1.81975422 -1.68131715e-16 
1.02184319 7.07292938e-16 
1.81975422 -1.24446913e-15 
1.02184319 8.59592541e-16 
1.02184319 1.28088465e-16 
0.574057335 2.34588927e-16 
1.02184319 -1.65577911e-16 
0.574057335 2.45266094e-16 
0.574057335 3.97094961e-16 
0.322966937 -5.17307158e-16 
0.574057335 -4.52545798e-16 
0.322966937 8.25922216e-17 
0.322966937 2.13802636e-16 
0.182538186 5.65337364e-17 
0.322966937 -1.93431079e-16 
0.182538186 2.83511442e-16 
0.182538186 5.90877016e-17 
0.104654465 -7.48775803e-17 
0.182538186 2.27228652e-17 
0.104654465 -1.06058466e-16 
0.104654465 1.4805995e-16 
0.0626296331 -4.31523161e-17 
0.104654465 6.0529986e-17 
0.0626296331 -1.27117223e-17 
0.0626296331 2.43178927e-17 
0.0420642684 1.86813742e-18 
0.0626296331 -2.29774424e-17 
0.0420642684 1.43064649e-17 
0.0420642684 -9.21388828e-20 
0.035911838 -3.26571411e-18 
0.0420642684 -1.31823683e-17 
0.035911838 4.76209454e-18 
5.77318332 -1.18945219e-15 
3.24118728 8.76041915e-16 
5.77318332 1.13551842e-16 
3.24118728 -2.51338483e-15 
3.24118728 1.11505689e-16 
1.81975422 1.07155221e-16 
3.24118728 -1.49221684e-15 
1.81975422 2.21348394e-15 
1.81975422 -1.24446913e-15 
1.02184319 8.59592541e-16 
1.81975422 -1.73253514e-15 
1.02184319 8.93111252e-16 
1.02184319 -1.65577911e-16 
0.574057335 2.45266094e-16 
1.02184319 6.58816661e-16 
0.574057335 -4.55804298e-16 
0.574057335 -4.52545798e-16 
0.322966937 8.25922216e-17 
0.574057335 -1.52002927e-16 
0.322966937 1.69461275e-17 
0.322966937 -1.93431079e-16 
0.182538186 2.83511442e-16 
0.322966937 -6.06333826e-17 
0.182538186 1.5395301e-16 
0.182538186 2.27228652e-17 
0.104654465 -1.06058466e-16 
0.182538186 1.23944547e-16 
0.104654465 -1.81965479e-16 
0.104654465 6.0529986e-17 
0.0626296331 -1.27117223e-17 
0.104654465 1.86256137e-16 
0.0626296331 -8.47853274e-17 
0.0626296331 -2.29774424e-17 
0.0420642684 1.43064649e-17 
0.0626296331 2.20885596e-17 
0.0420642684 3.77913759e-18 
0.0420642684 -1.31823683e-17 
0.035911838 4.76209454e-18 
0.0420642684 7.19895109e-18 
0.035911838 -1.41194347e-17 
5.77318332 1.13551842e-16 
3.24118728 -2.51338483e-15 
5.77318332 5.47711317e-15 
3.24118728 -1.1986107e-15 
3.24118728 -1.49221684e-15 
1.81975422 2.21348394e-15 
3.24118728 -1.35263408e-15 
1.81975422 1.77877967e-15 
1.81975422 -1.73253514e-15 
1.02184319 8.93111252e-16 
1.81975422 -1.53382943e-16 
1.02184319 6.95852747e-16 
1.02184319 6.58816661e-16 
0.574057335 -4.55804298e-16 
1.02184319 3.42793595e-16 
0.574057335 -1.02785036e-16 
0.574057335 -1.52002927e-16 
0.322966937 1.69461275e-17 
0.574057335 5.66377532e-17 
0.322966937 -7.77070137e-17 
0.322966937 -6.06333826e-17 
0.182538186 1.5395301e-16 
0.322966937 -1.78214422e-16 
0.182538186 2.8905766e-16 
0.182538186 1.23944547e-16 
0.104654465 -1.81965479e-16 
0.182538186 1.18770222e-16 
0.104654465 -6.14419625e-17 
0.104654465 1.86256137e-16 
0.0626296331 -8.47853274e-17 
0.104654465 2.99366694e-17 
0.0626296331 2.09972538e-17 
0.0626296331 2.20885596e-17 
0.0420642684 3.77913759e-18 
0.0626296331 3.24359954e-17 
0.0420642684 4.67537603e-18 
0.0420642684 7.19895109e-18 
0.035911838 -1.41194347e-17 
0.0420642684 -1.57493788e-17 
0.035911838 1.18935958e-17 
5.77318332 5.47711317e-15 
3.24118728 -1.1986107e-15 
5.77318332 0 
3.24118728 0 
3.24118728 -1.35263408e-15 
1.81975422 1.77877967e-15 
3.24118728 0 
1.81975422 0 
1.81975422 -1.53382943e-16 
1.02184319 6.95852747e-16 
1.81975422 0 
1.02184319 0 
1.02184319 3.42793595e-16 
0.574057335 -1.02785036e-16 
1.02184319 0 
0.574057335 0 
0.574057335 5.66377532e-17 
0.322966937 -7.77070137e-17 
0.574057335 0 
0.322966937 0 
0.322966937 -1.78214422e-16 
0.182538186 2.8905766e-16 
0.322966937 0 
0.182538186 0 
0.182538186 1.18770222e-16 
0.104654465 -6.14419625e-17 
0.182538186 0 
0.104654465 0 
0.104654465 2.99366694e-17 
0.0626296331 2.09972538e-17 
0.104654465 0 
0.0626296331 0 
0.0626296331 3.24359954e-17 
0.0420642684 4.67537603e-18 
0.0626296331 0 
0.0420642684 0 
0.0420642684 -1.57493788e-17 
0.035911838 1.18935958e-17 
0.0420642684 0 
0.035911838 0 
</DataArray>
<DataArray type="Float64" Name="temperature" NumberOfComponents="1"  format="ascii" >
0.977688424
0.541509202
0.977688424
0.541509202
0.54887205
0.303987784
0.54887205
0.303987784
0.308121632
0.170624983
0.308121632
0.170624983
0.172946255
0.0957252613
0.172946255
0.0957252613
0.0970293196
0.0536249194
0.0970293196
0.0536249194
0.0543585878
0.0298986625
0.0543585878
0.0298986625
0.0303133256
0.016416907
0.0303133256
0.016416907
0.0166546455
0.00856025368
0.0166546455
0.00856025368
0.00870252639
0.00363669245
0.00870252639
0.00363669245
0.00373224781
-4.07895936e-05
0.00373224781
-4.07895936e-05
0.977688424
0.541509202
0.977688424
0.541509202
0.54887205
0.303987784
0.54887205
0.303987784
0.308121632
0.170624983
0.308121632
0.170624983
0.172946255
0.0957252613
0.172946255
0.0957252613
0.0970293196
0.0536249194
0.0970293196
0.0536249194
0.0543585878
0.0298986625
0.0543585878
0.0298986625
0.0303133256
0.016416907
0.0303133256
0.016416907
0.0166546455
0.00856025368
0.0166546455
0.00856025368
0.00870252639
0.00363669245
0.00870252639
0.00363669245
0.00373224781
-4.07895936e-05
0.00373224781
-4.07895936e-05
0.977688424
0.541509202
0.977688424
0.541509202
0.54887205
0.303987784
0.54887205
0.303987784
0.308121632
0.170624983
0.308121632
0.170624983
0.172946255
0.0957252613
0.172946255
0.0957252613
0.0970293196
0.0536249194
0.0970293196
0.0536249194
0.0543585878
0.0298986625
0.0543585878
0.0298986625
0.0303133256
0.016416907
0.0303133256
0.016416907
0.0166546455
0.00856025368
0.0166546455
0.00856025368
0.00870252639
0.00363669245
0.00870252639
0.00363669245
0.00373224781
-4.07895936e-05
0.00373224781
-4.07895936e-05
0.977688424
0.541509202
0.977688424
0.541509202
0.54887205
0.303987784
0.54887205
0.303987784
0.308121632
0.170624983
0.308121632
0.170624983
0.172946255
0.0957252613
0.172946255
0.0957252613
0.0970293196
0.0536249194
0.0970293196
0.0536249194
0.0543585878
0.0298986625
0.0543585878
0.0298986625
0.0303133256
0.016416907
0.0303133256
0.016416907
0.0166546455
0.00856025368
0.0166546455
0.00856025368
0.00870252639
0.00363669245
0.00870252639
0.00363669245
0.00373224781
-4.07895936e-05
0.00373224781
-4.07895936e-05
0.977688424
0.541509202
0.977688424
0.541509202
0.54887205
0.303987784
0.54887205
0.303987784
0.308121632
0.170624983
0.308121632
0.170624983
0.172946255
0.0957252613
0.172946255
0.0957252613
0.0970293196
0.0536249194
0.0970293196
0.0536249194
0.0543585878
0.0298986625
0.0543585878
0.0298986625
0.0303133256
0.016416907
0.0303133256
0.016416907
0.0166546455
0.00856025368
0.0166546455
0.00856025368
0.00870252639
0.00363669245
0.00870252639
0.00363669245
0.00373224781
-4.07895936e-05
0.00373224781
-4.07895936e-05
0.977688424
0.541509202
0.977688424
0.541509202
0.54887205
0.303987784
0.54887205
0.303987784
0.308121632
0.170624983
0.308121632
0.170624983
0.172946255
0.0957252613
0.172946255
0.0957252613
0.0970293196
0.0536249194
0.0970293196
0.0536249194
0.0543585878
0.0298986625
0.0543585878
0.0298986625
0.0303133256
0.016416907
0.0303133256
0.016416907
0.0166546455
0.00856025368
0.0166546455
0.00856025368
0.00870252639
0.00363669245
0.00870252639
0.00363669245
0.00373224781
-4.07895936e-05
0.00373224781
-4.07895936e-05
0.977688424
0.541509202
0.977688424
0.541509202
0.54887205
0.303987784
0.54887205
0.303987784
0.308121632
0.170624983
0.308121632
0.170624983
0.172946255
0.0957252613
0.172946255
0.0957252613
0.0970293196
0.0536249194
0.0970293196
0.0536249194
0.0543585878
0.0298986625
0.0543585878
0.0298986625
0.0303133256
0.016416907
0.0303133256
0.016416907
0.0166546455
0.00856025368
0.0166546455
0.00856025368
0.00870252639
0.00363669245
0.00870252639
0.00363669245
0.00373224781
-4.07895936e-05
0.00373224781
-4.07895936e-05
0.977688424
0.541509202
0.977688424
0.541509202
0.54887205
0.303987784
0.54887205
0.303987784
0.308121632
0.170624983
0.308121632
0.170624983
0.172946255
0.0957252613
0.172946255
0.0957252613
0.0970293196
0.0536249194
0.0970293196
0.0536249194
0.0543585878
0.0298986625
0.0543585878
0.0298986625
0.0303133256
0.016416907
0.0303133256
0.016416907
0.0166546455
0.00856025368
0.0166546455
0.00856025368
0.00870252639
0.00363669245
0.00870252639
0.00363669245
0.00373224781
-4.07895936e-05
0.00373224781
-4.07895936e-05
0.977688424
0.541509202
0.977688424
0.541509202
0.54887205
0.303987784
0.54887205
0.303987784
0.308121632
0.170624983
0.308121632
0.170624983
0.172946255
0.0957252613
0.172946255
0.0957252613
0.0970293196
0.0536249194
0.0970293196
0.0536249194
0.0543585878
0.0298986625
0.0543585878
0.0298986625
0.0303133256
0.016416907
0.0303133256
0.016416907
0.0166546455
0.00856025368
0.0166546455
0.00856025368
0.00870252639
0.00363669245
0.00870252639
0.00363669245
0.00373224781
-4.07895936e-05
0.00373224781
-4.07895936e-05
0.977688424
0.541509202
0.977688424
0.541509202
0.54887205
0.303987784
0.54887205
0.303987784
0.308121632
0.170624983
0.308121632
0.170624983
0.172946255
0.0957252613
0.172946255
0.0957252613
0.0970293196
0.0536249194
0.0970293196
0.0536249194
0.0543585878
0.0298986625
0.0543585878
0.0298986625
0.0303133256
0.016416907
0.0303133256
0.016416907
0.0166546455
0.00856025368
0.0166546455
0.00856025368
0.00870252639
0.00363669245
0.00870252639
0.00363669245
0.00373224781
-4.07895936e-05
0.00373224781
-4.07895936e-05
</DataArray>
<DataArray type="Float64" Name="time_integrated_heat_flux" NumberOfComponents="2" ComponentName0="0" ComponentName1="1" format="ascii" >
0.1731955 0 
0.0972356183 0 
0.1731955 7.69101595e-17 
0.0972356183 -6.17925086e-17 
0.0972356183 0 
0.0545926266 0 
0.0972356183 4.34153049e-17 
0.0545926266 -1.82700431e-17 
0.0545926266 0 
0.0306552958 0 
0.0545926266 -3.14278164e-17 
0.0306552958 1.07313549e-17 
0.0306552958 0 
0.01722172 0 
0.0306552958 3.77263531e-18 
0.01722172 -1.31964481e-17 
0.01722172 0 
0.0096890081 0 
0.01722172 -1.01981371e-17 
0.0096890081 6.11325649e-18 
0.0096890081 0 
0.00547614559 0 
0.0096890081 2.17984101e-18 
0.00547614559 -4.13270507e-18 
0.00547614559 0 
0.00313963395 0 
0.00547614559 -9.46996359e-19 
0.00313963395 2.10040115e-18 
0.00313963395 0 
0.00187888899 0 
0.00313963395 -2.54909165e-18 
0.00187888899 1.55674397e-18 
0.00187888899 0 
0.00126192805 0 
0.00187888899 1.03142679e-18 
0.00126192805 -8.21447599e-19 
0.00126192805 0 
0.00107735514 0 
0.00126192805 2.28718052e-19 
0.00107735514 -2.3603276e-19 
0.1731955 7.69101595e-17 
0.0972356183 -6.17925086e-17 
0.1731955 -8.2743557e-18 
0.0972356183 -1.16057636e-17 
0.0972356183 4.34153049e-17 
0.0545926266 -1.82700431e-17 
0.0972356183 2.2378879e-17 
0.0545926266 6.14059435e-18 
0.0545926266 -3.14278164e-17 
0.0306552958 1.07313549e-17 
0.0545926266 8.65154065e-18 
0.0306552958 -1.07804638e-17 
0.0306552958 3.77263531e-18 
0.01722172 -1.31964481e-17 
0.0306552958 -1.31193989e-17 
0.01722172 3.41272586e-20 
0.01722172 -1.01981371e-17 
0.0096890081 6.11325649e-18 
0.01722172 -7.25704263e-18 
0.0096890081 -5.05489913e-18 
0.0096890081 2.17984101e-18 
0.00547614559 -4.13270507e-18 
0.0096890081 -2.30633959e-18 
0.00547614559 4.90177518e-18 
0.00547614559 -9.46996359e-19 
0.00313963395 2.10040115e-18 
0.00547614559 -2.22982958e-18 
0.00313963395 2.07202011e-18 
0.00313963395 -2.54909165e-18 
0.00187888899 1.55674397e-18 
0.00313963395 -2.54258108e-18 
0.00187888899 1.47444486e-18 
0.00187888899 1.03142679e-18 
0.00126192805 -8.21447599e-19 
0.00187888899 6.30034121e-19 
0.00126192805 2.08966944e-19 
0.00126192805 2.28718052e-19 
0.00107735514 -2.3603276e-19 
0.00126192805 -4.28353786e-19 
0.00107735514 2.2803579e-19 
0.1731955 -8.2743557e-18 
0.0972356183 -1.16057636e-17 
0.1731955 4.01722992e-17 
0.0972356183 -3.48971901e-17 
0.0972356183 2.2378879e-17 