<VTKFile type="UnstructuredGrid" version="0.1" byte_order="LittleEndian">
<UnstructuredGrid>
<Piece NumberOfPoints="512" NumberOfCells="64">
<Points>
<DataArray type="Float64" NumberOfComponents="3" format="ascii">
0 0 0
0.5 0 0
0 0.5 0
0.5 0.5 0
0 0 0.5
0.5 0 0.5
0 0.5 0.5
0.5 0.5 0.5
0.5 0 0
1 0 0
0.5 0.5 0
1 0.5 0
0.5 0 0.5
1 0 0.5
0.5 0.5 0.5
1 0.5 0.5
0.5 0.5 0
1 0.5 0
0.5 1 0
1 1 0
0.5 0.5 0.5
1 0.5 0.5
0.5 1 0.5
1 1 0.5
0 0.5 0
0.5 0.5 0
0 1 0
0.5 1 0
0 0.5 0.5
0.5 0.5 0.5
0 1 0.5
0.5 1 0.5
0 0 0.5
0.5 0 0.5
0 0.5 0.5
0.5 0.5 0.5
0 0 1
0.5 0 1
0 0.5 1
0.5 0.5 1
0.5 0 0.5
1 0 0.5
0.5 0.5 0.5
1 0.5 0.5
0.5 0 1
1 0 1
0.5 0.5 1
1 0.5 1
0.5 0.5 0.5
1 0.5 0.5
0.5 1 0.5
1 1 0.5
0.5 0.5 1
1 0.5 1
0.5 1 1
1 1 1
0 0.5 0.5
0.5 0.5 0.5
0 1 0.5
0.5 1 0.5
0 0.5 1
0.5 0.5 1
0 1 1
0.5 1 1
1 0 0
1.5 0 0
1 0.5 0
1.5 0.5 0
1 0 0.5
1.5 0 0.5
1 0.5 0.5
1.5 0.5 0.5
1.5 0 0
2 0 0
1.5 0.5 0
2 0.5 0
1.5 0 0.5
2 0 0.5
1.5 0.5 0.5
2 0.5 0.5
1.5 0.5 0
2 0.5 0
1.5 1 0
2 1 0
1.5 0.5 0.5
2 0.5 0.5
1.5 1 0.5
2 1 0.5
1 0.5 0
1.5 0.5 0
1 1 0
1.5 1 0
1 0.5 0.5
1.5 0.5 0.5
1 1 0.5
1.5 1 0.5
1 0 0.5
1.5 0 0.5
1 0.5 0.5
1.5 0.5 0.5
1 0 1
1.5 0 1
1 0.5 1
1.5 0.5 1
1.5 0 0.5
2 0 0.5
1.5 0.5 0.5
2 0.5 0.5
1.5 0 1
2 0 1
1.5 0.5 1
2 0.5 1
1.5 0.5 0.5
2 0.5 0.5
1.5 1 0.5
2 1 0.5
1.5 0.5 1
2 0.5 1
1.5 1 1
2 1 1
1 0.5 0.5
1.5 0.5 0.5
1 1 0.5
1.5 1 0.5
1 0.5 1
1.5 0.5 1
1 1 1
1.5 1 1
2 0 0
2.5 0 0
2 0.5 0
2.5 0.5 0
2 0 0.5
2.5 0 0.5
2 0.5 0.5
2.5 0.5 0.5
2.5 0 0
3 0 0
2.5 0.5 0
3 0.5 0
2.5 0 0.5
3 0 0.5
2.5 0.5 0.5
3 0.5 0.5
2.5 0.5 0
3 0.5 0
2.5 1 0
3 1 0
2.5 0.5 0.5
3 0.5 0.5
2.5 1 0.5
3 1 0.5
2 0.5 0
2.5 0.5 0
2 1 0
2.5 1 0
2 0.5 0.5
2.5 0.5 0.5
2 1 0.5
2.5 1 0.5
2 0 0.5
2.5 0 0.5
2 0.5 0.5
2.5 0.5 0.5
2 0 1
2.5 0 1
2 0.5 1
2.5 0.5 1
2.5 0 0.5
3 0 0.5
2.5 0.5 0.5
3 0.5 0.5
2.5 0 1
3 0 1
2.5 0.5 1
3 0.5 1
2.5 0.5 0.5
3 0.5 0.5
2.5 1 0.5
3 1 0.5
2.5 0.5 1
3 0.5 1
2.5 1 1
3 1 1
2 0.5 0.5
2.5 0.5 0.5
2 1 0.5
2.5 1 0.5
2 0.5 1
2.5 0.5 1
2 1 1
2.5 1 1
3 0 0
3.5 0 0
3 0.5 0
3.5 0.5 0
3 0 0.5
3.5 0 0.5
3 0.5 0.5
3.5 0.5 0.5
3.5 0 0
4 0 0
3.5 0.5 0
4 0.5 0
3.5 0 0.5
4 0 0.5
3.5 0.5 0.5
4 0.5 0.5
3.5 0.5 0
4 0.5 0
3.5 1 0
4 1 0
3.5 0.5 0.5
4 0.5 0.5
3.5 1 0.5
4 1 0.5
3 0.5 0
3.5 0.5 0
3 1 0
3.5 1 0
3 0.5 0.5
3.5 0.5 0.5
3 1 0.5
3.5 1 0.5
3 0 0.5
3.5 0 0.5
3 0.5 0.5
3.5 0.5 0.5
3 0 1
3.5 0 1
3 0.5 1
3.5 0.5 1
3.5 0 0.5
4 0 0.5
3.5 0.5 0.5
4 0.5 0.5
3.5 0 1
4 0 1
3.5 0.5 1
4 0.5 1
3.5 0.5 0.5
4 0.5 0.5
3.5 1 0.5
4 1 0.5
3.5 0.5 1
4 0.5 1
3.5 1 1
4 1 1
3 0.5 0.5
3.5 0.5 0.5
3 1 0.5
3.5 1 0.5
3 0.5 1
3.5 0.5 1
3 1 1
3.5 1 1
4 0 0
4.5 0 0
4 0.5 0
4.5 0.5 0
4 0 0.5
4.5 0 0.5
4 0.5 0.5
4.5 0.5 0.5
4.5 0 0
5 0 0
4.5 0.5 0
5 0.5 0
4.5 0 0.5
5 0 0.5
4.5 0.5 0.5
5 0.5 0.5
4.5 0.5 0
5 0.5 0
4.5 1 0
5 1 0
4.5 0.5 0.5
5 0.5 0.5
4.5 1 0.5
5 1 0.5
4 0.5 0
4.5 0.5 0
4 1 0
4.5 1 0
4 0.5 0.5
4.5 0.5 0.5
4 1 0.5
4.5 1 0.5
4 0 0.5
4.5 0 0.5
4 0.5 0.5
4.5 0.5 0.5
4 0 1
4.5 0 1
4 0.5 1
4.5 0.5 1
4.5 0 0.5
5 0 0.5
4.5 0.5 0.5
5 0.5 0.5
4.5 0 1
5 0 1
4.5 0.5 1
5 0.5 1
4.5 0.5 0.5
5 0.5 0.5
4.5 1 0.5
5 1 0.5
4.5 0.5 1
5 0.5 1
4.5 1 1
5 1 1
4 0.5 0.5
4.5 0.5 0.5
4 1 0.5
4.5 1 0.5
4 0.5 1
4.5 0.5 1
4 1 1
4.5 1 1
5 0 0
5.5 0 0
5 0.5 0
5.5 0.5 0
5 0 0.5
5.5 0 0.5
5 0.5 0.5
5.5 0.5 0.5
5.5 0 0
6 0 0
5.5 0.5 0
6 0.5 0
5.5 0 0.5
6 0 0.5
5.5 0.5 0.5
6 0.5 0.5
5.5 0.5 0
6 0.5 0
5.5 1 0
6 1 0
5.5 0.5 0.5
6 0.5 0.5
5.5 1 0.5
6 1 0.5
5 0.5 0
5.5 0.5 0
5 1 0
5.5 1 0
5 0.5 0.5
5.5 0.5 0.5
5 1 0.5
5.5 1 0.5
5 0 0.5
5.5 0 0.5
5 0.5 0.5
5.5 0.5 0.5
5 0 1
5.5 0 1
5 0.5 1
5.5 0.5 1
5.5 0 0.5
6 0 0.5
5.5 0.5 0.5
6 0.5 0.5
5.5 0 1
6 0 1
5.5 0.5 1
6 0.5 1
5.5 0.5 0.5
6 0.5 0.5
5.5 1 0.5
6 1 0.5
5.5 0.5 1
6 0.5 1
5.5 1 1
6 1 1
5 0.5 0.5
5.5 0.5 0.5
5 1 0.5
5.5 1 0.5
5 0.5 1
5.5 0.5 1
5 1 1
5.5 1 1
6 0 0
6.5 0 0
6 0.5 0
6.5 0.5 0
6 0 0.5
6.5 0 0.5
6 0.5 0.5
6.5 0.5 0.5
6.5 0 0
7 0 0
6.5 0.5 0
7 0.5 0
6.5 0 0.5
7 0 0.5
6.5 0.5 0.5
7 0.5 0.5
6.5 0.5 0
7 0.5 0
6.5 1 0
7 1 0
6.5 0.5 0.5
7 0.5 0.5
6.5 1 0.5
7 1 0.5
6 0.5 0
6.5 0.5 0
6 1 0
6.5 1 0
6 0.5 0.5
6.5 0.5 0.5
6 1 0.5
6.5 1 0.5
6 0 0.5
6.5 0 0.5
6 0.5 0.5
6.5 0.5 0.5
6 0 1
6.5 0 1
6 0.5 1
6.5 0.5 1
6.5 0 0.5
7 0 0.5
6.5 0.5 0.5
7 0.5 0.5
6.5 0 1
7 0 1
6.5 0.5 1
7 0.5 1
6.5 0.5 0.5
7 0.5 0.5
6.5 1 0.5
7 1 0.5
6.5 0.5 1
7 0.5 1
6.5 1 1
7 1 1
6 0.5 0.5
6.5 0.5 0.5
6 1 0.5
6.5 1 0.5
6 0.5 1
6.5 0.5 1
6 1 1
6.5 1 1
7 0 0
7.5 0 0
7 0.5 0
7.5 0.5 0
7 0 0.5
7.5 0 0.5
7 0.5 0.5
7.5 0.5 0.5
7.5 0 0
8 0 0
7.5 0.5 0
8 0.5 0
7.5 0 0.5
8 0 0.5
7.5 0.5 0.5
8 0.5 0.5
7.5 0.5 0
8 0.5 0
7.5 1 0
8 1 0
7.5 0.5 0.5
8 0.5 0.5
7.5 1 0.5
8 1 0.5
7 0.5 0
7.5 0.5 0
7 1 0
7.5 1 0
7 0.5 0.5
7.5 0.5 0.5
7 1 0.5
7.5 1 0.5
7 0 0.5
7.5 0 0.5
7 0.5 0.5
7.5 0.5 0.5
7 0 1
7.5 0 1
7 0.5 1
7.5 0.5 1
7.5 0 0.5
8 0 0.5
7.5 0.5 0.5
8 0.5 0.5
7.5 0 1
8 0 1
7.5 0.5 1
8 0.5 1
7.5 0.5 0.5
8 0.5 0.5
7.5 1 0.5
8 1 0.5
7.5 0.5 1
8 0.5 1
7.5 1 1
8 1 1
7 0.5 0.5
7.5 0.5 0.5
7 1 0.5
7.5 1 0.5
7 0.5 1
7.5 0.5 1
7 1 1
7.5 1 1
</DataArray>
</Points>
<Cells>
<DataArray type="Int32" Name="connectivity" format="ascii">
0 1 3 2 4 5 7 6 
8 9 11 10 12 13 15 14 
16 17 19 18 20 21 23 22 
24 25 27 26 28 29 31 30 
32 33 35 34 36 37 39 38 
40 41 43 42 44 45 47 46 
48 49 51 50 52 53 55 54 
56 57 59 58 60 61 63 62 
64 65 67 66 68 69 71 70 
72 73 75 74 76 77 79 78 
80 81 83 82 84 85 87 86 
88 89 91 90 92 93 95 94 
96 97 99 98 100 101 103 102 
104 105 107 106 108 109 111 110 
112 113 115 114 116 117 119 118 
120 121 123 122 124 125 127 126 
128 129 131 130 132 133 135 134 
136 137 139 138 140 141 143 142 
144 145 147 146 148 149 151 150 
152 153 155 154 156 157 159 158 
160 161 163 162 164 165 167 166 
168 169 171 170 172 173 175 174 
176 177 179 178 180 181 183 182 
184 185 187 186 188 189 191 190 
192 193 195 194 196 197 199 198 
200 201 203 202 204 205 207 206 
208 209 211 210 212 213 215 214 
216 217 219 218 220 221 223 222 
224 225 227 226 228 229 231 230 
232 233 235 234 236 237 239 238 
240 241 243 242 244 245 247 246 
248 249 251 250 252 253 255 254 
256 257 259 258 260 261 263 262 
264 265 267 266 268 269 271 270 
272 273 275 274 276 277 279 278 
280 281 283 282 284 285 287 286 
288 289 291 290 292 293 295 294 
296 297 299 298 300 301 303 302 
304 305 307 306 308 309 311 310 
312 313 315 314 316 317 319 318 
320 321 323 322 324 325 327 326 
328 329 331 330 332 333 335 334 
336 337 339 338 340 341 343 342 
344 345 347 346 348 349 351 350 
352 353 355 354 356 357 359 358 
360 361 363 362 364 365 367 366 
368 369 371 370 372 373 375 374 
376 377 379 378 380 381 383 382 
384 385 387 386 388 389 391 390 
392 393 395 394 396 397 399 398 
400 401 403 402 404 405 407 406 
408 409 411 410 412 413 415 414 
416 417 419 418 420 421 423 422 
424 425 427 426 428 429 431 430 
432 433 435 434 436 437 439 438 
440 441 443 442 444 445 447 446 
448 449 451 450 452 453 455 454 
456 457 459 458 460 461 463 462 
464 465 467 466 468 469 471 470 
472 473 475 474 476 477 479 478 
480 481 483 482 484 485 487 486 
488 489 491 490 492 493 495 494 
496 497 499 498 500 501 503 502 
504 505 507 506 508 509 511 510 
</DataArray>
<DataArray type="Int32" Name="offsets" format="ascii">
8
16
24
32
40
48
56
64
72
80
88
96
104
112
120
128
136
144
152
160
168
176
184
192
200
208
216
224
232
240
248
256
264
272
280
288
296
304
312
320
328
336
344
352
360
368
376
384
392
400
408
416
424
432
440
448
456
464
472
480
488
496
504
512
</DataArray>
<DataArray type="UInt8" Name="types" format="ascii">
12
12
12
12
12
12
12
12
12
12
12
12
12
12
12
12
12
12
12
12
12
12
12
12
12
12
12
12
12
12
12
12
12
12
12
12
12
12
12
12
12
12
12
12
12
12
12
12
12
12
12
12
12
12
12
12
12
12
12
12
12
12
12
12
</DataArray>
</Cells>
<CellData Scalars="attribute">
<DataArray type="Int32" Name="attribute" format="ascii">
1
1
1
1
1
1
1
1
1
1
1
1
1
1
1
1
1
1
1
1
1
1
1
1
1
1
1
1
1
1
1
1
2
2
2
2
2
2
2
2
2
2
2
2
2
2
2
2
2
2
2
2
2
2
2
2
2
2
2
2
2
2
2
2
</DataArray>
</CellData>
<PointData >
<DataArray type="Float64" Name="F" NumberOfComponents="3" ComponentName0="0" ComponentName1="1" ComponentName2="2" format="ascii" >
-0.474972684 -0.474972684 0 
10.4016473 56.1361575 0 
56.1361575 -7.09198627e-10 0 
11.1176885 -9.72172473e-11 0 
-0.474972684 -0.474972684 1.13262474e-12 
10.4016473 56.1361575 1.03276369e-11 
56.1361575 -7.23985534e-10 1.20472898e-11 
11.1176885 -6.78963588e-11 -4.74678289e-12 
10.4016473 56.1361575 0 
23.5949144 -0.474972679 0 
11.1176885 -5.66922774e-11 0 
10.9662633 -3.74105743e-11 0 
10.4016473 56.1361575 1.07948065e-11 
23.5949144 -0.474972679 -5.27303549e-12 
11.1176885 -7.84813661e-11 4.16335481e-12 
10.9662633 -2.52266464e-11 1.20249308e-12 
11.1176885 -5.66922774e-11 0 
10.9662633 -3.74105743e-11 0 
10.4016473 -56.1361575 0 
23.5949144 0.474972679 0 
11.1176885 -7.84813661e-11 -2.98594432e-12 
10.9662633 -2.52266464e-11 -1.11646779e-11 
10.4016473 -56.1361575 1.31377799e-11 
23.5949144 0.474972679 2.06486946e-11 
56.1361575 -7.09198627e-10 0 
11.1176885 -9.72172473e-11 0 
-0.474972679 0.474972684 0 
10.4016473 -56.1361575 0 
56.1361575 -7.23985534e-10 8.66218556e-12 
11.1176885 -6.78963588e-11 8.68478034e-12 
-0.474972679 0.474972684 3.96906998e-12 
10.4016473 -56.1361575 -1.2714376e-11 
-0.474972684 -0.474972684 1.13262474e-12 
10.4016473 56.1361575 1.03276369e-11 
56.1361575 -7.10646888e-10 1.20472898e-11 
11.1176885 -7.92041068e-11 -4.74678289e-12 
-0.474972684 -0.474972684 0 
10.4016473 56.1361575 0 
56.1361575 -7.26965193e-10 0 
11.1176885 -5.57179526e-11 0 
10.4016473 56.1361575 1.07948065e-11 
23.5949144 -0.474972679 -5.27303549e-12 
11.1176885 -6.9419283e-11 4.16335481e-12 
10.9662633 -3.54017852e-11 1.20249308e-12 
10.4016473 56.1361575 0 
23.5949144 -0.474972679 0 
11.1176885 -9.517162e-11 0 
10.9662633 -1.20815471e-11 0 
11.1176885 -6.9419283e-11 -2.98594432e-12 
10.9662633 -3.54017852e-11 -1.11646779e-11 
10.4016473 -56.1361575 1.31377799e-11 
23.5949144 0.474972679 2.06486946e-11 
11.1176885 -9.517162e-11 0 
10.9662633 -1.20815471e-11 0 
10.4016473 -56.1361575 0 
23.5949144 0.474972679 0 
56.1361575 -7.10646888e-10 8.66218556e-12 
11.1176885 -7.92041068e-11 8.68478034e-12 
-0.474972679 0.474972684 3.96906998e-12 
10.4016473 -56.1361575 -1.2714376e-11 
56.1361575 -7.26965193e-10 0 
11.1176885 -5.57179526e-11 0 
-0.474972679 0.474972684 0 
10.4016473 -56.1361575 0 
23.5949144 0.474972689 0 
3.94838765 -56.1361575 0 
10.9662633 -3.1423541e-11 0 
3.9491429 -4.99086649e-11 0 
23.5949144 0.474972689 7.90133676e-12 
3.94838765 -56.1361575 -1.05177408e-11 
10.9662633 -7.02409319e-12 -1.80739749e-12 
3.9491429 -6.00003924e-11 4.94956196e-12 
3.94838765 -56.1361575 0 
-14.6993533 0.474972674 0 
3.9491429 -5.02639763e-11 0 
-2.05007015 -3.39768003e-12 0 
3.94838765 -56.1361575 1.8053739e-11 
-14.6993533 0.474972674 5.30855811e-12 
3.9491429 -4.78882948e-11 -5.79265917e-12 
-2.05007015 -9.71488813e-14 1.30994354e-12 
3.9491429 -5.02639763e-11 0 
-2.05007015 -3.39768003e-12 0 
3.94838765 56.1361575 0 
-14.6993533 -0.474972674 0 
3.9491429 -4.78882948e-11 -1.35368986e-12 
-2.05007015 -9.71488813e-14 4.55427338e-12 
3.94838765 56.1361575 -2.19488751e-11 
-14.6993533 -0.474972674 2.23278669e-11 
10.9662633 -3.1423541e-11 0 
3.9491429 -4.99086649e-11 0 
23.5949144 -0.474972689 0 
3.94838765 56.1361575 0 
10.9662633 -7.02409319e-12 7.24711532e-12 
3.9491429 -6.00003924e-11 4.69148243e-12 
23.5949144 -0.474972689 4.22205622e-12 
3.94838765 56.1361575 -1.51831238e-11 
23.5949144 0.474972689 7.90133676e-12 
3.94838765 -56.1361575 -1.05177408e-11 
10.9662633 -1.17852916e-11 -1.80739749e-12 
3.9491429 -4.76569239e-11 4.94956196e-12 
23.5949144 0.474972689 0 
3.94838765 -56.1361575 0 
10.9662633 -3.63349448e-11 0 
3.9491429 -4.49388157e-11 0 
3.94838765 -56.1361575 1.8053739e-11 
-14.6993533 0.474972674 5.30855811e-12 
3.9491429 -5.37832801e-11 -5.79265917e-12 
-2.05007015 -8.0753085e-13 1.30994354e-12 
3.94838765 -56.1361575 0 
-14.6993533 0.474972674 0 
3.9491429 -5.10478335e-11 0 
-2.05007015 -1.6953984e-13 0 
3.9491429 -5.37832801e-11 -1.35368986e-12 
-2.05007015 -8.0753085e-13 4.55427338e-12 
3.94838765 56.1361575 -2.19488751e-11 
-14.6993533 -0.474972674 2.23278669e-11 
3.9491429 -5.10478335e-11 0 
-2.05007015 -1.6953984e-13 0 
3.94838765 56.1361575 0 
-14.6993533 -0.474972674 0 
10.9662633 -1.17852916e-11 7.24711532e-12 
3.9491429 -4.76569239e-11 4.69148243e-12 
23.5949144 -0.474972689 4.22205622e-12 
3.94838765 56.1361575 -1.51831238e-11 
10.9662633 -3.63349448e-11 0 
3.9491429 -4.49388157e-11 0 
23.5949144 -0.474972689 0 
3.94838765 56.1361575 0 
-14.6993533 -0.474972694 0 
1.51478566 56.1361575 0 
-2.05007015 -3.99841629e-13 0 
1.51478689 4.73133197e-11 0 
-14.6993533 -0.474972694 -1.16887595e-11 
1.51478566 56.1361575 1.55082088e-11 
-2.05007015 -3.02484437e-12 -1.98745483e-12 
1.51478689 5.09164578e-11 -1.99269477e-12 
1.51478566 56.1361575 0 
18.1155629 -0.474972669 0 
1.51478689 4.3150293e-11 0 
5.46630991 3.89316523e-12 0 
1.51478566 56.1361575 8.71208626e-13 
18.1155629 -0.474972669 2.73027405e-11 
1.51478689 4.08270612e-11 -2.69333134e-12 
5.46630991 5.79980796e-12 2.97833362e-12 
1.51478689 4.3150293e-11 0 
5.46630991 3.89316523e-12 0 
1.51478566 -56.1361575 0 
18.1155629 0.474972669 0 
1.51478689 4.08270612e-11 6.93677892e-14 
5.46630991 5.79980796e-12 -6.51361298e-12 
1.51478566 -56.1361575 1.11078546e-11 
18.1155629 0.474972669 5.6556258e-13 
-2.05007015 -3.99841629e-13 0 
1.51478689 4.73133197e-11 0 
-14.6993533 0.474972694 0 
1.51478566 -56.1361575 0 
-2.05007015 -3.02484437e-12 3.18035953e-13 
1.51478689 5.09164578e-11 1.25070652e-12 
-14.6993533 0.474972694 -3.18815559e-11 
1.51478566 -56.1361575 2.05705229e-12 
-14.6993533 -0.474972694 -1.16887595e-11 
1.51478566 56.1361575 1.55082088e-11 
-2.05007015 -2.03239584e-12 -1.98745483e-12 
1.51478689 4.20163677e-11 -1.99269477e-12 
-14.6993533 -0.474972694 0 
1.51478566 56.1361575 0 
-2.05007015 3.2734726e-12 0 
1.51478689 4.4941077e-11 0 
1.51478566 56.1361575 8.71208626e-13 
18.1155629 -0.474972669 2.73027405e-11 
1.51478689 4.05788041e-11 -2.69333134e-12 
5.46630991 4.68038808e-12 2.97833362e-12 
1.51478566 56.1361575 0 
18.1155629 -0.474972669 0 
1.51478689 4.62716009e-11 0 
5.46630991 -2.42444881e-12 0 
1.51478689 4.05788041e-11 6.93677892e-14 
5.46630991 4.68038808e-12 -6.51361298e-12 
1.51478566 -56.1361575 1.11078546e-11 
18.1155629 0.474972669 5.6556258e-13 
1.51478689 4.62716009e-11 0 
5.46630991 -2.42444881e-12 0 
1.51478566 -56.1361575 0 
18.1155629 0.474972669 0 
-2.05007015 -2.03239584e-12 3.18035953e-13 
1.51478689 4.20163677e-11 1.25070652e-12 
-14.6993533 0.474972694 -3.18815559e-11 
1.51478566 -56.1361575 2.05705229e-12 
-2.05007015 3.2734726e-12 0 
1.51478689 4.4941077e-11 0 
-14.6993533 0.474972694 0 
1.51478566 -56.1361575 0 
18.1155629 0.474972699 0 
0.726111786 -56.1361575 0 
5.46630991 -2.49485165e-12 0 
0.726111785 -4.71448342e-11 0 
18.1155629 0.474972699 -2.31917752e-11 
0.726111786 -56.1361575 -8.63197666e-13 
5.46630991 -5.82819828e-12 -3.45666356e-12 
0.726111785 -3.84280131e-11 -4.09689302e-12 
0.726111786 -56.1361575 0 
-16.477998 0.474972664 0 
0.726111785 -4.61000135e-11 0 
-3.82874489 5.80713371e-13 0 
0.726111786 -56.1361575 -2.45791997e-11 
-16.477998 0.474972664 7.4289751e-12 
0.726111785 -5.01935943e-11 -2.94542072e-12 
-3.82874489 -8.71485118e-13 4.01293717e-12 
0.726111785 -4.61000135e-11 0 
-3.82874489 5.80713371e-13 0 
0.726111786 56.1361575 0 
-16.477998 -0.474972664 0 
0.726111785 -5.01935943e-11 -2.90106069e-13 
-3.82874489 -8.71485118e-13 3.67236664e-12 
0.726111786 56.1361575 -6.88636754e-12 
-16.477998 -0.474972664 -8.35315254e-12 
5.46630991 -2.49485165e-12 0 
0.726111785 -4.71448342e-11 0 
18.1155629 -0.474972699 0 
0.726111786 56.1361575 0 
5.46630991 -5.82819828e-12 3.42502043e-12 
0.726111785 -3.84280131e-11 -1.04952454e-12 
18.1155629 -0.474972699 -4.51743649e-12 
0.726111786 56.1361575 8.84993581e-12 
18.1155629 0.474972699 -2.31917752e-11 
0.726111786 -56.1361575 -8.63197666e-13 
5.46630991 -9.90588597e-13 -3.45666356e-12 
0.726111785 -3.87670711e-11 -4.09689302e-12 
18.1155629 0.474972699 0 
0.726111786 -56.1361575 0 
5.46630991 1.72833894e-12 0 
0.726111785 -4.55855568e-11 0 
0.726111786 -56.1361575 -2.45791997e-11 
-16.477998 0.474972664 7.4289751e-12 
0.726111785 -4.36919487e-11 -2.94542072e-12 
-3.82874489 1.06458724e-12 4.01293717e-12 
0.726111786 -56.1361575 0 
-16.477998 0.474972664 0 
0.726111785 -4.75922093e-11 0 
-3.82874489 -7.85235484e-13 0 
0.726111785 -4.36919487e-11 -2.90106069e-13 
-3.82874489 1.06458724e-12 3.67236664e-12 
0.726111786 56.1361575 -6.88636754e-12 
-16.477998 -0.474972664 -8.35315254e-12 
0.726111785 -4.75922093e-11 0 
-3.82874489 -7.85235484e-13 0 
0.726111786 56.1361575 0 
-16.477998 -0.474972664 0 
5.46630991 -9.90588597e-13 3.42502043e-12 
0.726111785 -3.87670711e-11 -1.04952454e-12 
18.1155629 -0.474972699 -4.51743649e-12 
0.726111786 56.1361575 8.84993581e-12 
5.46630991 1.72833894e-12 0 
0.726111785 -4.55855568e-11 0 
18.1155629 -0.474972699 0 
0.726111786 56.1361575 0 
-16.477998 -0.474972704 0 
0.726111774 56.1361575 0 
-3.82874489 4.09560605e-13 0 
0.726111781 4.80833931e-11 0 
-16.477998 -0.474972704 -1.24276205e-11 
0.726111774 56.1361575 1.63580369e-11 
-3.82874489 5.60210106e-13 -5.07624123e-12 
0.726111781 4.47274204e-11 -2.20298284e-12 
0.726111774 56.1361575 0 
18.1155629 -0.474972659 0 
0.726111781 4.42504075e-11 0 
5.46630991 3.33637889e-13 0 
0.726111774 56.1361575 -1.59251431e-12 
18.1155629 -0.474972659 2.01595695e-11 
0.726111781 4.47486167e-11 3.86697596e-12 
5.46630991 1.96527775e-12 -2.41107969e-12 
0.726111781 4.42504075e-11 0 
5.46630991 3.33637889e-13 0 
0.726111774 -56.1361575 0 
18.1155629 0.474972659 0 
0.726111781 4.47486167e-11 3.42701138e-12 
5.46630991 1.96527775e-12 3.0420353e-12 
0.726111774 -56.1361575 -9.11249403e-12 
18.1155629 0.474972659 -5.19378646e-12 
-3.82874489 4.09560605e-13 0 
0.726111781 4.80833931e-11 0 
-16.477998 0.474972704 0 
0.726111774 -56.1361575 0 
-3.82874489 5.60210106e-13 2.32422762e-13 
0.726111781 4.47274204e-11 4.88323425e-12 
-16.477998 0.474972704 -6.31846402e-13 
0.726111774 -56.1361575 2.10825098e-11 
-16.477998 -0.474972704 -1.24276205e-11 
0.726111774 56.1361575 1.63580369e-11 
-3.82874489 -6.64316254e-13 -5.07624123e-12 
0.726111781 4.33769133e-11 -2.20298284e-12 
-16.477998 -0.474972704 0 
0.726111774 56.1361575 0 
-3.82874489 -2.84644587e-12 0 
0.726111781 4.67622345e-11 0 
0.726111774 56.1361575 -1.59251431e-12 
18.1155629 -0.474972659 2.01595695e-11 
0.726111781 4.55589033e-11 3.86697596e-12 
5.46630991 -7.13494783e-12 -2.41107969e-12 
0.726111774 56.1361575 0 
18.1155629 -0.474972659 0 
0.726111781 4.13520327e-11 0 
5.46630991 1.25829798e-11 0 
0.726111781 4.55589033e-11 3.42701138e-12 
5.46630991 -7.13494783e-12 3.0420353e-12 
0.726111774 -56.1361575 -9.11249403e-12 
18.1155629 0.474972659 -5.19378646e-12 
0.726111781 4.13520327e-11 0 
5.46630991 1.25829798e-11 0 
0.726111774 -56.1361575 0 
18.1155629 0.474972659 0 
-3.82874489 -6.64316254e-13 2.32422762e-13 
0.726111781 4.33769133e-11 4.88323425e-12 
-16.477998 0.474972704 -6.31846402e-13 
0.726111774 -56.1361575 2.10825098e-11 
-3.82874489 -2.84644587e-12 0 
0.726111781 4.67622345e-11 0 
-16.477998 0.474972704 0 
0.726111774 -56.1361575 0 
18.1155629 0.474972709 0 
1.51478567 -56.1361575 0 
5.46630991 8.30581085e-12 0 
1.5147869 -4.57292376e-11 0 
18.1155629 0.474972709 -2.07290034e-11 
1.51478567 -56.1361575 -1.83905604e-11 
5.46630991 -3.4202102e-12 -4.74830005e-12 
1.5147869 -4.95248975e-11 7.13463453e-12 
1.51478567 -56.1361575 0 
-14.6993533 0.474972654 0 
1.5147869 -4.77080174e-11 0 
-2.05007015 9.13820638e-12 0 
1.51478567 -56.1361575 -1.51185362e-11 
-14.6993533 0.474972654 1.77389502e-11 
1.5147869 -3.95478151e-11 1.99919948e-12 
-2.05007015 -3.59737575e-12 -5.11931473e-12 
1.5147869 -4.77080174e-11 0 
-2.05007015 9.13820638e-12 0 
1.51478567 56.1361575 0 
-14.6993533 -0.474972654 0 
1.5147869 -3.95478151e-11 1.60963167e-12 
-2.05007015 -3.59737575e-12 2.57313136e-12 
1.51478567 56.1361575 -3.07483955e-11 
-14.6993533 -0.474972654 1.45508299e-11 
5.46630991 8.30581085e-12 0 
1.5147869 -4.57292376e-11 0 
18.1155629 -0.474972709 0 
1.51478567 56.1361575 0 
5.46630991 -3.4202102e-12 -3.68806472e-13 
1.5147869 -4.95248975e-11 -5.920466e-12 
18.1155629 -0.474972709 -3.17415375e-12 
1.51478567 56.1361575 7.70639974e-12 
18.1155629 0.474972709 -2.07290034e-11 
1.51478567 -56.1361575 -1.83905604e-11 
5.46630991 4.79449031e-12 -4.74830005e-12 
1.5147869 -4.48388497e-11 7.13463453e-12 
18.1155629 0.474972709 0 
1.51478567 -56.1361575 0 
5.46630991 -3.5309462e-12 0 
1.5147869 -4.37577114e-11 0 
1.51478567 -56.1361575 -1.51185362e-11 
-14.6993533 0.474972654 1.77389502e-11 
1.5147869 -4.60727857e-11 1.99919948e-12 
-2.05007015 9.74927167e-13 -5.11931473e-12 
1.51478567 -56.1361575 0 
-14.6993533 0.474972654 0 
1.5147869 -4.66490632e-11 0 
-2.05007015 2.67307245e-12 0 
1.5147869 -4.60727857e-11 1.60963167e-12 
-2.05007015 9.74927167e-13 2.57313136e-12 
1.51478567 56.1361575 -3.07483955e-11 
-14.6993533 -0.474972654 1.45508299e-11 
1.5147869 -4.66490632e-11 0 
-2.05007015 2.67307245e-12 0 
1.51478567 56.1361575 0 
-14.6993533 -0.474972654 0 
5.46630991 4.79449031e-12 -3.68806472e-13 
1.5147869 -4.48388497e-11 -5.920466e-12 
18.1155629 -0.474972709 -3.17415375e-12 
1.51478567 56.1361575 7.70639974e-12 
5.46630991 -3.5309462e-12 0 
1.5147869 -4.37577114e-11 0 
18.1155629 -0.474972709 0 
1.51478567 56.1361575 0 
-14.6993533 -0.474972715 0 
3.94838764 56.1361575 0 
-2.05007015 -3.61380569e-12 0 
3.9491429 5.04595556e-11 0 
-14.6993533 -0.474972715 -1.97345239e-11 
3.94838764 56.1361575 1.19889139e-11 
-2.05007015 3.60959324e-12 -2.15298474e-12 
3.9491429 4.66102796e-11 -4.14358865e-12 
3.94838764 56.1361575 0 
23.5949144 -0.474972649 0 
3.9491429 4.66578958e-11 0 
10.9662633 2.86253499e-11 0 
3.94838764 56.1361575 3.25247455e-11 
23.5949144 -0.474972649 -1.04660748e-11 
3.9491429 5.53809969e-11 -6.61584037e-12 
10.9662633 2.10727999e-11 -6.54490247e-12 
3.9491429 4.66578958e-11 0 
10.9662633 2.86253499e-11 0 
3.94838764 -56.1361575 0 
23.5949144 0.474972649 0 
3.9491429 5.53809969e-11 3.14524029e-12 
10.9662633 2.10727999e-11 -5.66860721e-12 
3.94838764 -56.1361575 -4.02459065e-12 
23.5949144 0.474972649 6.43955496e-12 
-2.05007015 -3.61380569e-12 0 
3.9491429 5.04595556e-11 0 
-14.6993533 0.474972715 0 
3.94838764 -56.1361575 0 
-2.05007015 3.60959324e-12 -3.90728093e-12 
3.9491429 4.66102796e-11 2.09679197e-12 
-14.6993533 0.474972715 3.71642995e-12 
3.94838764 -56.1361575 2.54168049e-12 
-14.6993533 -0.474972715 -1.97345239e-11 
3.94838764 56.1361575 1.19889139e-11 
-2.05007015 -4.77744853e-13 -2.15298474e-12 
3.9491429 4.86912757e-11 -4.14358865e-12 
-14.6993533 -0.474972715 0 
3.94838764 56.1361575 0 
-2.05007015 -4.0031241e-13 0 
3.9491429 5.08431351e-11 0 
3.94838764 56.1361575 3.25247455e-11 
23.5949144 -0.474972649 -1.04660748e-11 
3.9491429 4.4171108e-11 -6.61584037e-12 
10.9662633 2.2547281e-11 -6.54490247e-12 
3.94838764 56.1361575 0 
23.5949144 -0.474972649 0 
3.9491429 5.40417367e-11 0 
10.9662633 1.81470859e-11 0 
3.9491429 4.4171108e-11 3.14524029e-12 
10.9662633 2.2547281e-11 -5.66860721e-12 
3.94838764 -56.1361575 -4.02459065e-12 
23.5949144 0.474972649 6.43955496e-12 
3.9491429 5.40417367e-11 0 
10.9662633 1.81470859e-11 0 
3.94838764 -56.1361575 0 
23.5949144 0.474972649 0 
-2.05007015 -4.77744853e-13 -3.90728093e-12 
3.9491429 4.86912757e-11 2.09679197e-12 
-14.6993533 0.474972715 3.71642995e-12 
3.94838764 -56.1361575 2.54168049e-12 
-2.05007015 -4.0031241e-13 0 
3.9491429 5.08431351e-11 0 
-14.6993533 0.474972715 0 
3.94838764 -56.1361575 0 
23.5949144 0.47497272 0 
10.4016473 -56.1361575 0 
10.9662633 1.60558419e-11 0 
11.1176885 7.21051195e-11 0 
23.5949144 0.47497272 -1.32082681e-11 
10.4016473 -56.1361575 1.45767351e-11 
10.9662633 3.31870177e-11 1.32174013e-11 
11.1176885 7.51417601e-11 -1.49981975e-11 
10.4016473 -56.1361575 0 
-0.474972684 0.474972644 0 
11.1176885 8.05159156e-11 0 
56.1361575 7.24426618e-10 0 
10.4016473 -56.1361575 -1.59261521e-11 
-0.474972684 0.474972644 7.49322236e-13 
11.1176885 6.52092569e-11 5.77405634e-12 
56.1361575 7.45768525e-10 -1.69641026e-11 
11.1176885 8.05159156e-11 0 
56.1361575 7.24426618e-10 0 
10.4016473 56.1361575 0 
-0.474972679 -0.474972644 0 
11.1176885 6.52092569e-11 -5.32488443e-12 
56.1361575 7.45768525e-10 2.91967359e-11 
10.4016473 56.1361575 -9.99793776e-12 
-0.474972679 -0.474972644 -3.45048693e-12 
10.9662633 1.60558419e-11 0 
11.1176885 7.21051195e-11 0 
23.5949144 -0.47497272 0 
10.4016473 56.1361575 0 
10.9662633 3.31870177e-11 2.77048301e-12 
11.1176885 7.51417601e-11 3.01253507e-12 
23.5949144 -0.47497272 -3.66423063e-12 
10.4016473 56.1361575 -1.3148661e-11 
23.5949144 0.47497272 -1.32082681e-11 
10.4016473 -56.1361575 1.45767351e-11 
10.9662633 2.19778426e-11 1.32174013e-11 
11.1176885 8.36739148e-11 -1.49981975e-11 
23.5949144 0.47497272 0 
10.4016473 -56.1361575 0 
10.9662633 3.15644042e-11 0 
11.1176885 7.19579942e-11 0 
10.4016473 -56.1361575 -1.59261521e-11 
-0.474972684 0.474972644 7.49322236e-13 
11.1176885 5.78734818e-11 5.77405634e-12 
56.1361575 7.05070266e-10 -1.69641026e-11 
10.4016473 -56.1361575 0 
-0.474972684 0.474972644 0 
11.1176885 7.3731351e-11 0 
56.1361575 7.11434561e-10 0 
11.1176885 5.78734818e-11 -5.32488443e-12 
56.1361575 7.05070266e-10 2.91967359e-11 
10.4016473 56.1361575 -9.99793776e-12 
-0.474972679 -0.474972644 -3.45048693e-12 
11.1176885 7.3731351e-11 0 
56.1361575 7.11434561e-10 0 
10.4016473 56.1361575 0 
-0.474972679 -0.474972644 0 
10.9662633 2.19778426e-11 2.77048301e-12 
11.1176885 8.36739148e-11 3.01253507e-12 
23.5949144 -0.47497272 -3.66423063e-12 
10.4016473 56.1361575 -1.3148661e-11 
10.9662633 3.15644042e-11 0 
11.1176885 7.19579942e-11 0 
23.5949144 -0.47497272 0 
10.4016473 56.1361575 0 
</DataArray>
<DataArray type="Float64" Name="divF" NumberOfComponents="1"  format="ascii" >
-18.5320251
-18.5320251
-18.5320251
-18.5320251
-18.5320251
-18.5320251
-18.5320251
-18.5320251
-13.1531342
-13.1531342
-13.1531342
-13.1531342
-13.1531342
-13.1531342
-13.1531342
-13.1531342
-13.1531342
-13.1531342
-13.1531342
-13.1531342
-13.1531342
-13.1531342
-13.1531342
-13.1531342
-18.5320251
-18.5320251
-18.5320251
-18.5320251
-18.5320251
-18.5320251
-18.5320251
-18.5320251
-18.5320251
-18.5320251
-18.5320251
-18.5320251
-18.5320251
-18.5320251
-18.5320251
-18.5320251
-13.1531342
-13.1531342
-13.1531342
-13.1531342
-13.1531342
-13.1531342
-13.1531342
-13.1531342
-13.1531342
-13.1531342
-13.1531342
-13.1531342
-13.1531342
-13.1531342
-13.1531342
-13.1531342
-18.5320251
-18.5320251
-18.5320251
-18.5320251
-18.5320251
-18.5320251
-18.5320251
-18.5320251
-0.153526544
-0.153526544
-0.153526544
-0.153526544
-0.153526544
-0.153526544
-0.153526544
-0.153526544
1.84145773
1.84145773
1.84145773
1.84145773
1.84145773
1.84145773
1.84145773
1.84145773
1.84145773
1.84145773
1.84145773
1.84145773
1.84145773
1.84145773
1.84145773
1.84145773
-0.153526543
-0.153526543
-0.153526543
-0.153526543
-0.153526543
-0.153526543
-0.153526543
-0.153526543
-0.153526544
-0.153526544
-0.153526544
-0.153526544
-0.153526544
-0.153526544
-0.153526544
-0.153526544
1.84145773
1.84145773
1.84145773
1.84145773
1.84145773
1.84145773
1.84145773
1.84145773
1.84145773
1.84145773
1.84145773
1.84145773
1.84145773
1.84145773
1.84145773
1.84145773
-0.153526543
-0.153526543
-0.153526543
-0.153526543
-0.153526543
-0.153526543
-0.153526543
-0.153526543
-6.65900329
-6.65900329
-6.65900329
-6.65900329
-6.65900329
-6.65900329
-6.65900329
-6.65900329
-5.89370664
-5.89370664
-5.89370664
-5.89370664
-5.89370664
-5.89370664
-5.89370664
-5.89370664
-5.89370664
-5.89370664
-5.89370664
-5.89370664
-5.89370664
-5.89370664
-5.89370664
-5.89370664
-6.65900329
-6.65900329
-6.65900329
-6.65900329
-6.65900329
-6.65900329
-6.65900329
-6.65900329
-6.65900329
-6.65900329
-6.65900329
-6.65900329
-6.65900329
-6.65900329
-6.65900329
-6.65900329
-5.89370664
-5.89370664
-5.89370664
-5.89370664
-5.89370664
-5.89370664
-5.89370664
-5.89370664
-5.89370664
-5.89370664
-5.89370664
-5.89370664
-5.89370664
-5.89370664
-5.89370664
-5.89370664
-6.65900329
-6.65900329
-6.65900329
-6.65900329
-6.65900329
-6.65900329
-6.65900329
-6.65900329
4.33269114
4.33269114
4.33269114
4.33269114
4.33269114
4.33269114
4.33269114
4.33269114
4.69953558
4.69953558
4.69953558
4.69953558
4.69953558
4.69953558
4.69953558
4.69953558
4.69953558
4.69953558
4.69953558
4.69953558
4.69953558
4.69953558
4.69953558
4.69953558
4.33269114
4.33269114
4.33269114
4.33269114
4.33269114
4.33269114
4.33269114
4.33269114
4.33269114
4.33269114
4.33269114
4.33269114
4.33269114
4.33269114
4.33269114
4.33269114
4.69953558
4.69953558
4.69953558
4.69953558
4.69953558
4.69953558
4.69953558
4.69953558
4.69953558
4.69953558
4.69953558
4.69953558
4.69953558
4.69953558
4.69953558
4.69953558
4.33269114
4.33269114
4.33269114
4.33269114
4.33269114
4.33269114
4.33269114
4.33269114
-4.69953558
-4.69953558
-4.69953558
-4.69953558
-4.69953558
-4.69953558
-4.69953558
-4.69953558
-4.33269115
-4.33269115
-4.33269115
-4.33269115
-4.33269115
-4.33269115
-4.33269115
-4.33269115
-4.33269115
-4.33269115
-4.33269115
-4.33269115
-4.33269115
-4.33269115
-4.33269115
-4.33269115
-4.69953558
-4.69953558
-4.69953558
-4.69953558
-4.69953558
-4.69953558
-4.69953558
-4.69953558
-4.69953558
-4.69953558
-4.69953558
-4.69953558
-4.69953558
-4.69953558
-4.69953558
-4.69953558
-4.33269115
-4.33269115
-4.33269115
-4.33269115
-4.33269115
-4.33269115
-4.33269115
-4.33269115
-4.33269115
-4.33269115
-4.33269115
-4.33269115
-4.33269115
-4.33269115
-4.33269115
-4.33269115
-4.69953558
-4.69953558
-4.69953558
-4.69953558
-4.69953558
-4.69953558
-4.69953558
-4.69953558
5.89370664
5.89370664
5.89370664
5.89370664
5.89370664
5.89370664
5.89370664
5.89370664
6.65900329
6.65900329
6.65900329
6.65900329
6.65900329
6.65900329
6.65900329
6.65900329
6.65900329
6.65900329
6.65900329
6.65900329
6.65900329
6.65900329
6.65900329
6.65900329
5.89370664
5.89370664
5.89370664
5.89370664
5.89370664
5.89370664
5.89370664
5.89370664
5.89370664
5.89370664
5.89370664
5.89370664
5.89370664
5.89370664
5.89370664
5.89370664
6.65900329
6.65900329
6.65900329
6.65900329
6.65900329