<VTKFile type="UnstructuredGrid" version="0.1" byte_order="LittleEndian">
<UnstructuredGrid>
<Piece NumberOfPoints="512" NumberOfCells="64">
<Points>
<DataArray type="Float64" NumberOfComponents="3" format="ascii">
0 0 0
0.5 0 0
0 0.5 0
0.5 0.5 0
0 0 0.5
0.5 0 0.5
0 0.5 0.5
0.5 0.5 0.5
0.5 0 0
1 0 0
0.5 0.5 0
1 0.5 0
0.5 0 0.5
1 0 0.5
0.5 0.5 0.5
1 0.5 0.5
0.5 0.5 0
1 0.5 0
0.5 1 0
1 1 0
0.5 0.5 0.5
1 0.5 0.5
0.5 1 0.5
1 1 0.5
0 0.5 0
0.5 0.5 0
0 1 0
0.5 1 0
0 0.5 0.5
0.5 0.5 0.5
0 1 0.5
0.5 1 0.5
0 0 0.5
0.5 0 0.5
0 0.5 0.5
0.5 0.5 0.5
0 0 1
0.5 0 1
0 0.5 1
0.5 0.5 1
0.5 0 0.5
1 0 0.5
0.5 0.5 0.5
1 0.5 0.5
0.5 0 1
1 0 1
0.5 0.5 1
1 0.5 1
0.5 0.5 0.5
1 0.5 0.5
0.5 1 0.5
1 1 0.5
0.5 0.5 1
1 0.5 1
0.5 1 1
1 1 1
0 0.5 0.5
0.5 0.5 0.5
0 1 0.5
0.5 1 0.5
0 0.5 1
0.5 0.5 1
0 1 1
0.5 1 1
1 0 0
1.5 0 0
1 0.5 0
1.5 0.5 0
1 0 0.5
1.5 0 0.5
1 0.5 0.5
1.5 0.5 0.5
1.5 0 0
2 0 0
1.5 0.5 0
2 0.5 0
1.5 0 0.5
2 0 0.5
1.5 0.5 0.5
2 0.5 0.5
1.5 0.5 0
2 0.5 0
1.5 1 0
2 1 0
1.5 0.5 0.5
2 0.5 0.5
1.5 1 0.5
2 1 0.5
1 0.5 0
1.5 0.5 0
1 1 0
1.5 1 0
1 0.5 0.5
1.5 0.5 0.5
1 1 0.5
1.5 1 0.5
1 0 0.5
1.5 0 0.5
1 0.5 0.5
1.5 0.5 0.5
1 0 1
1.5 0 1
1 0.5 1
1.5 0.5 1
1.5 0 0.5
2 0 0.5
1.5 0.5 0.5
2 0.5 0.5
1.5 0 1
2 0 1
1.5 0.5 1
2 0.5 1
1.5 0.5 0.5
2 0.5 0.5
1.5 1 0.5
2 1 0.5
1.5 0.5 1
2 0.5 1
1.5 1 1
2 1 1
1 0.5 0.5
1.5 0.5 0.5
1 1 0.5
1.5 1 0.5
1 0.5 1
1.5 0.5 1
1 1 1
1.5 1 1
2 0 0
2.5 0 0
2 0.5 0
2.5 0.5 0
2 0 0.5
2.5 0 0.5
2 0.5 0.5
2.5 0.5 0.5
2.5 0 0
3 0 0
2.5 0.5 0
3 0.5 0
2.5 0 0.5
3 0 0.5
2.5 0.5 0.5
3 0.5 0.5
2.5 0.5 0
3 0.5 0
2.5 1 0
3 1 0
2.5 0.5 0.5
3 0.5 0.5
2.5 1 0.5
3 1 0.5
2 0.5 0
2.5 0.5 0
2 1 0
2.5 1 0
2 0.5 0.5
2.5 0.5 0.5
2 1 0.5
2.5 1 0.5
2 0 0.5
2.5 0 0.5
2 0.5 0.5
2.5 0.5 0.5
2 0 1
2.5 0 1
2 0.5 1
2.5 0.5 1
2.5 0 0.5
3 0 0.5
2.5 0.5 0.5
3 0.5 0.5
2.5 0 1
3 0 1
2.5 0.5 1
3 0.5 1
2.5 0.5 0.5
3 0.5 0.5
2.5 1 0.5
3 1 0.5
2.5 0.5 1
3 0.5 1
2.5 1 1
3 1 1
2 0.5 0.5
2.5 0.5 0.5
2 1 0.5
2.5 1 0.5
2 0.5 1
2.5 0.5 1
2 1 1
2.5 1 1
3 0 0
3.5 0 0
3 0.5 0
3.5 0.5 0
3 0 0.5
3.5 0 0.5
3 0.5 0.5
3.5 0.5 0.5
3.5 0 0
4 0 0
3.5 0.5 0
4 0.5 0
3.5 0 0.5
4 0 0.5
3.5 0.5 0.5
4 0.5 0.5
3.5 0.5 0
4 0.5 0
3.5 1 0
4 1 0
3.5 0.5 0.5
4 0.5 0.5
3.5 1 0.5
4 1 0.5
3 0.5 0
3.5 0.5 0
3 1 0
3.5 1 0
3 0.5 0.5
3.5 0.5 0.5
3 1 0.5
3.5 1 0.5
3 0 0.5
3.5 0 0.5
3 0.5 0.5
3.5 0.5 0.5
3 0 1
3.5 0 1
3 0.5 1
3.5 0.5 1
3.5 0 0.5
4 0 0.5
3.5 0.5 0.5
4 0.5 0.5
3.5 0 1
4 0 1
3.5 0.5 1
4 0.5 1
3.5 0.5 0.5
4 0.5 0.5
3.5 1 0.5
4 1 0.5
3.5 0.5 1
4 0.5 1
3.5 1 1
4 1 1
3 0.5 0.5
3.5 0.5 0.5
3 1 0.5
3.5 1 0.5
3 0.5 1
3.5 0.5 1
3 1 1
3.5 1 1
4 0 0
4.5 0 0
4 0.5 0
4.5 0.5 0
4 0 0.5
4.5 0 0.5
4 0.5 0.5
4.5 0.5 0.5
4.5 0 0
5 0 0
4.5 0.5 0
5 0.5 0
4.5 0 0.5
5 0 0.5
4.5 0.5 0.5
5 0.5 0.5
4.5 0.5 0
5 0.5 0
4.5 1 0
5 1 0
4.5 0.5 0.5
5 0.5 0.5
4.5 1 0.5
5 1 0.5
4 0.5 0
4.5 0.5 0
4 1 0
4.5 1 0
4 0.5 0.5
4.5 0.5 0.5
4 1 0.5
4.5 1 0.5
4 0 0.5
4.5 0 0.5
4 0.5 0.5
4.5 0.5 0.5
4 0 1
4.5 0 1
4 0.5 1
4.5 0.5 1
4.5 0 0.5
5 0 0.5
4.5 0.5 0.5
5 0.5 0.5
4.5 0 1
5 0 1
4.5 0.5 1
5 0.5 1
4.5 0.5 0.5
5 0.5 0.5
4.5 1 0.5
5 1 0.5
4.5 0.5 1
5 0.5 1
4.5 1 1
5 1 1
4 0.5 0.5
4.5 0.5 0.5
4 1 0.5
4.5 1 0.5
4 0.5 1
4.5 0.5 1
4 1 1
4.5 1 1
5 0 0
5.5 0 0
5 0.5 0
5.5 0.5 0
5 0 0.5
5.5 0 0.5
5 0.5 0.5
5.5 0.5 0.5
5.5 0 0
6 0 0
5.5 0.5 0
6 0.5 0
5.5 0 0.5
6 0 0.5
5.5 0.5 0.5
6 0.5 0.5
5.5 0.5 0
6 0.5 0
5.5 1 0
6 1 0
5.5 0.5 0.5
6 0.5 0.5
5.5 1 0.5
6 1 0.5
5 0.5 0
5.5 0.5 0
5 1 0
5.5 1 0
5 0.5 0.5
5.5 0.5 0.5
5 1 0.5
5.5 1 0.5
5 0 0.5
5.5 0 0.5
5 0.5 0.5
5.5 0.5 0.5
5 0 1
5.5 0 1
5 0.5 1
5.5 0.5 1
5.5 0 0.5
6 0 0.5
5.5 0.5 0.5
6 0.5 0.5
5.5 0 1
6 0 1
5.5 0.5 1
6 0.5 1
5.5 0.5 0.5
6 0.5 0.5
5.5 1 0.5
6 1 0.5
5.5 0.5 1
6 0.5 1
5.5 1 1
6 1 1
5 0.5 0.5
5.5 0.5 0.5
5 1 0.5
5.5 1 0.5
5 0.5 1
5.5 0.5 1
5 1 1
5.5 1 1
6 0 0
6.5 0 0
6 0.5 0
6.5 0.5 0
6 0 0.5
6.5 0 0.5
6 0.5 0.5
6.5 0.5 0.5
6.5 0 0
7 0 0
6.5 0.5 0
7 0.5 0
6.5 0 0.5
7 0 0.5
6.5 0.5 0.5
7 0.5 0.5
6.5 0.5 0
7 0.5 0
6.5 1 0
7 1 0
6.5 0.5 0.5
7 0.5 0.5
6.5 1 0.5
7 1 0.5
6 0.5 0
6.5 0.5 0
6 1 0
6.5 1 0
6 0.5 0.5
6.5 0.5 0.5
6 1 0.5
6.5 1 0.5
6 0 0.5
6.5 0 0.5
6 0.5 0.5
6.5 0.5 0.5
6 0 1
6.5 0 1
6 0.5 1
6.5 0.5 1
6.5 0 0.5
7 0 0.5
6.5 0.5 0.5
7 0.5 0.5
6.5 0 1
7 0 1
6.5 0.5 1
7 0.5 1
6.5 0.5 0.5
7 0.5 0.5
6.5 1 0.5
7 1 0.5
6.5 0.5 1
7 0.5 1
6.5 1 1
7 1 1
6 0.5 0.5
6.5 0.5 0.5
6 1 0.5
6.5 1 0.5
6 0.5 1
6.5 0.5 1
6 1 1
6.5 1 1
7 0 0
7.5 0 0
7 0.5 0
7.5 0.5 0
7 0 0.5
7.5 0 0.5
7 0.5 0.5
7.5 0.5 0.5
7.5 0 0
8 0 0
7.5 0.5 0
8 0.5 0
7.5 0 0.5
8 0 0.5
7.5 0.5 0.5
8 0.5 0.5
7.5 0.5 0
8 0.5 0
7.5 1 0
8 1 0
7.5 0.5 0.5
8 0.5 0.5
7.5 1 0.5
8 1 0.5
7 0.5 0
7.5 0.5 0
7 1 0
7.5 1 0
7 0.5 0.5
7.5 0.5 0.5
7 1 0.5
7.5 1 0.5
7 0 0.5
7.5 0 0.5
7 0.5 0.5
7.5 0.5 0.5
7 0 1
7.5 0 1
7 0.5 1
7.5 0.5 1
7.5 0 0.5
8 0 0.5
7.5 0.5 0.5
8 0.5 0.5
7.5 0 1
8 0 1
7.5 0.5 1
8 0.5 1
7.5 0.5 0.5
8 0.5 0.5
7.5 1 0.5
8 1 0.5
7.5 0.5 1
8 0.5 1
7.5 1 1
8 1 1
7 0.5 0.5
7.5 0.5 0.5
7 1 0.5
7.5 1 0.5
7 0.5 1
7.5 0.5 1
7 1 1
7.5 1 1
</DataArray>
</Points>
<Cells>
<DataArray type="Int32" Name="connectivity" format="ascii">
0 1 3 2 4 5 7 6 
8 9 11 10 12 13 15 14 
16 17 19 18 20 21 23 22 
24 25 27 26 28 29 31 30 
32 33 35 34 36 37 39 38 
40 41 43 42 44 45 47 46 
48 49 51 50 52 53 55 54 
56 57 59 58 60 61 63 62 
64 65 67 66 68 69 71 70 
72 73 75 74 76 77 79 78 
80 81 83 82 84 85 87 86 
88 89 91 90 92 93 95 94 
96 97 99 98 100 101 103 102 
104 105 107 106 108 109 111 110 
112 113 115 114 116 117 119 118 
120 121 123 122 124 125 127 126 
128 129 131 130 132 133 135 134 
136 137 139 138 140 141 143 142 
144 145 147 146 148 149 151 150 
152 153 155 154 156 157 159 158 
160 161 163 162 164 165 167 166 
168 169 171 170 172 173 175 174 
176 177 179 178 180 181 183 182 
184 185 187 186 188 189 191 190 
192 193 195 194 196 197 199 198 
200 201 203 202 204 205 207 206 
208 209 211 210 212 213 215 214 
216 217 219 218 220 221 223 222 
224 225 227 226 228 229 231 230 
232 233 235 234 236 237 239 238 
240 241 243 242 244 245 247 246 
248 249 251 250 252 253 255 254 
256 257 259 258 260 261 263 262 
264 265 267 266 268 269 271 270 
272 273 275 274 276 277 279 278 
280 281 283 282 284 285 287 286 
288 289 291 290 292 293 295 294 
296 297 299 298 300 301 303 302 
304 305 307 306 308 309 311 310 
312 313 315 314 316 317 319 318 
320 321 323 322 324 325 327 326 
328 329 331 330 332 333 335 334 
336 337 339 338 340 341 343 342 
344 345 347 346 348 349 351 350 
352 353 355 354 356 357 359 358 
360 361 363 362 364 365 367 366 
368 369 371 370 372 373 375 374 
376 377 379 378 380 381 383 382 
384 385 387 386 388 389 391 390 
392 393 395 394 396 397 399 398 
400 401 403 402 404 405 407 406 
408 409 411 410 412 413 415 414 
416 417 419 418 420 421 423 422 
424 425 427 426 428 429 431 430 
432 433 435 434 436 437 439 438 
440 441 443 442 444 445 447 446 
448 449 451 450 452 453 455 454 
456 457 459 458 460 461 463 462 
464 465 467 466 468 469 471 470 
472 473 475 474 476 477 479 478 
480 481 483 482 484 485 487 486 
488 489 491 490 492 493 495 494 
496 497 499 498 500 501 503 502 
504 505 507 506 508 509 511 510 
</DataArray>
<DataArray type="Int32" Name="offsets" format="ascii">
8
16
24
32
40
48
56
64
72
80
88
96
104
112
120
128
136
144
152
160
168
176
184
192
200
208
216
224
232
240
248
256
264
272
280
288
296
304
312
320
328
336
344
352
360
368
376
384
392
400
408
416
424
432
440
448
456
464
472
480
488
496
504
512
</DataArray>
<DataArray type="UInt8" Name="types" format="ascii">
12
12
12
12
12
12
12
12
12
12
12
12
12
12
12
12
12
12
12
12
12
12
12
12
12
12
12
12
12
12
12
12
12
12
12
12
12
12
12
12
12
12
12
12
12
12
12
12
12
12
12
12
12
12
12
12
12
12
12
12
12
12
12
12
</DataArray>
</Cells>
<CellData Scalars="attribute">
<DataArray type="Int32" Name="attribute" format="ascii">
1
1
1
1
1
1
1
1
1
1
1
1
1
1
1
1
1
1
1
1
1
1
1
1
1
1
1
1
1
1
1
1
2
2
2
2
2
2
2
2
2
2
2
2
2
2
2
2
2
2
2
2
2
2
2
2
2
2
2
2
2
2
2
2
</DataArray>
</CellData>
<PointData >
<DataArray type="Float64" Name="F" NumberOfComponents="3" ComponentName0="0" ComponentName1="1" ComponentName2="2" format="ascii" >
-0.00207438611 -0.00207438611 0 
1.92171752e-06 0.997142302 0 
0.997142302 -1.40592446e-13 0 
-1.88528243e-06 4.46723009e-11 0 
-0.00207438611 -0.00207438611 1.30638628e-13 
1.92171746e-06 0.997142302 8.34387612e-15 
0.997142302 -3.88947815e-14 -1.33091361e-13 
-1.88528245e-06 4.48415506e-11 -8.74351153e-14 
1.92171752e-06 0.997142302 0 
0.00231600021 -0.00207438602 0 
-1.88528243e-06 4.48532773e-11 0 
-0.997378876 -6.69797376e-14 0 
1.92171746e-06 0.997142302 2.08099119e-13 
0.00231600021 -0.00207438602 -7.51691012e-14 
-1.88528245e-06 4.46688113e-11 1.02301156e-13 
-0.997378876 -1.1814484e-13 -6.26802466e-14 
-1.8852825e-06 4.48532773e-11 0 
-0.997378876 -6.69797376e-14 0 
1.92171739e-06 -0.997142302 0 
0.00231600012 0.00207438602 0 
-1.88528229e-06 4.46688113e-11 7.56710247e-15 
-0.997378876 -1.1814484e-13 -2.4882457e-13 
1.92171736e-06 -0.997142302 1.98443566e-13 
0.00231600012 0.00207438602 1.67623537e-13 
0.997142302 -1.40592446e-13 0 
-1.8852825e-06 4.46723009e-11 0 
-0.00207438602 0.00207438611 0 
1.92171739e-06 -0.997142302 0 
0.997142302 -3.88947815e-14 2.31756541e-13 
-1.88528229e-06 4.48415506e-11 -1.13654312e-13 
-0.00207438602 0.00207438611 -9.24355527e-14 
1.92171736e-06 -0.997142302 1.20966088e-13 
-0.00207438611 -0.00207438611 1.30638628e-13 
1.92171751e-06 0.997142302 8.34387612e-15 
0.997142302 -2.28682902e-13 -1.33091361e-13 
-1.88528252e-06 4.48422821e-11 -8.74351153e-14 
-0.00207438611 -0.00207438611 0 
1.92171717e-06 0.997142302 0 
0.997142302 -5.40597146e-14 0 
-1.88528248e-06 4.48064824e-11 0 
1.92171751e-06 0.997142302 2.08099119e-13 
0.00231600021 -0.00207438602 -7.51691012e-14 
-1.88528252e-06 4.48403771e-11 1.02301156e-13 
-0.997378876 -3.88153341e-13 -6.26802466e-14 
1.92171717e-06 0.997142302 0 
0.00231600021 -0.00207438602 0 
-1.88528248e-06 4.46780857e-11 0 
-0.997378876 1.79736165e-13 0 
-1.88528236e-06 4.48403771e-11 7.56710247e-15 
-0.997378876 -3.88153341e-13 -2.4882457e-13 
1.9217174e-06 -0.997142302 1.98443566e-13 
0.00231600012 0.00207438602 1.67623537e-13 
-1.88528245e-06 4.46780857e-11 0 
-0.997378876 1.79736165e-13 0 
1.92171747e-06 -0.997142302 0 
0.00231600012 0.00207438602 0 
0.997142302 -2.28682902e-13 2.31756541e-13 
-1.88528236e-06 4.48422821e-11 -1.13654312e-13 
-0.00207438602 0.00207438611 -9.24355527e-14 
1.9217174e-06 -0.997142302 1.20966088e-13 
0.997142302 -5.40597146e-14 0 
-1.88528245e-06 4.48064824e-11 0 
-0.00207438602 0.00207438611 0 
1.92171747e-06 -0.997142302 0 
0.00231600021 0.0020743862 0 
3.11372893e-09 -0.997142302 0 
-0.997378876 -1.90412924e-13 0 
4.20571058e-09 -4.47671599e-11 0 
0.00231600021 0.0020743862 -8.09692968e-14 
3.11399883e-09 -0.997142302 -3.3217957e-14 
-0.997378876 1.96439867e-13 -1.93840334e-13 
4.20570745e-09 -4.4800702e-11 2.16616535e-13 
3.11372893e-09 -0.997142302 0 
-0.00231598908 0.00207438593 0 
4.20571058e-09 -4.4646535e-11 0 
0.997378882 -9.61129974e-14 0 
3.11399883e-09 -0.997142302 1.83539884e-13 
-0.00231598908 0.00207438593 -1.40765284e-13 
4.20570745e-09 -4.47848767e-11 -1.63969531e-14 
0.997378882 -4.25678077e-14 1.11680615e-13 
4.20565017e-09 -4.4646535e-11 0 
0.997378882 -9.61129974e-14 0 
3.11397847e-09 0.997142302 0 
-0.00231598899 -0.00207438593 0 
4.20552945e-09 -4.47848767e-11 -1.33237326e-13 
0.997378882 -4.25678077e-14 2.86335308e-13 
3.11405976e-09 0.997142302 1.80971213e-13 
-0.00231598899 -0.00207438593 -2.94880915e-13 
-0.997378876 -1.90412924e-13 0 
4.20565017e-09 -4.47671599e-11 0 
0.00231600012 -0.0020743862 0 
3.11397847e-09 0.997142302 0 
-0.997378876 1.96439867e-13 -8.37927108e-14 
4.20552945e-09 -4.4800702e-11 -1.95081386e-14 
0.00231600012 -0.0020743862 4.99533346e-14 
3.11405976e-09 0.997142302 -1.62374935e-14 
0.00231600021 0.0020743862 -8.09692968e-14 
3.11378436e-09 -0.997142302 -3.3217957e-14 
-0.997378876 1.55872896e-13 -1.93840334e-13 
4.20581115e-09 -4.49069661e-11 2.16616535e-13 
0.00231600021 0.0020743862 0 
3.11413972e-09 -0.997142302 0 
-0.997378876 1.52119916e-13 0 
4.20562575e-09 -4.47084029e-11 0 
3.11378436e-09 -0.997142302 1.83539884e-13 
-0.00231598908 0.00207438593 -1.40765284e-13 
4.20581115e-09 -4.45244761e-11 -1.63969531e-14 
0.997378882 -8.32551071e-14 1.11680615e-13 
3.11413972e-09 -0.997142302 0 
-0.00231598908 0.00207438593 0 
4.20562575e-09 -4.49037929e-11 0 
0.997378882 2.21181664e-13 0 
4.20568142e-09 -4.45244761e-11 -1.33237326e-13 
0.997378882 -8.32551071e-14 2.86335308e-13 
3.11392772e-09 0.997142302 1.80971213e-13 
-0.00231598899 -0.00207438593 -2.94880915e-13 
4.20570984e-09 -4.49037929e-11 0 
0.997378882 2.21181664e-13 0 
3.11362869e-09 0.997142302 0 
-0.00231598899 -0.00207438593 0 
-0.997378876 1.55872896e-13 -8.37927108e-14 
4.20568142e-09 -4.49069661e-11 -1.95081386e-14 
0.00231600012 -0.0020743862 4.99533346e-14 
3.11392772e-09 0.997142302 -1.62374935e-14 
-0.997378876 1.52119916e-13 0 
4.20570984e-09 -4.47084029e-11 0 
0.00231600012 -0.0020743862 0 
3.11362869e-09 0.997142302 0 
-0.00231598908 -0.00207438629 0 
1.42767371e-09 0.997142302 0 
0.997378882 -9.4410669e-14 0 
1.65482582e-09 4.47423469e-11 0 
-0.00231598908 -0.00207438629 9.87253639e-14 
1.42762117e-09 0.997142302 -5.59057126e-14 
0.997378882 -2.4270623e-14 4.34578069e-14 
1.6548761e-09 4.48420024e-11 5.19390804e-15 
1.42767371e-09 0.997142302 0 
0.00231599227 -0.00207438585 0 
1.65482582e-09 4.47277723e-11 0 
-0.997378878 2.38562456e-14 0 
1.42762117e-09 0.997142302 -1.35195576e-13 
0.00231599227 -0.00207438585 8.82777917e-14 
1.6548761e-09 4.46723729e-11 1.00519249e-13 
-0.997378878 -3.10422062e-13 -3.52773165e-13 
1.65484981e-09 4.47277723e-11 0 
-0.997378878 2.38562456e-14 0 
1.4276907e-09 -0.997142302 0 
0.00231599219 0.00207438585 0 
1.65493809e-09 4.46723729e-11 -1.84743256e-13 
-0.997378878 -3.10422062e-13 2.79074121e-14 
1.42776974e-09 -0.997142302 3.5385828e-13 
0.00231599219 0.00207438585 -1.69752162e-14 
0.997378882 -9.4410669e-14 0 
1.65484981e-09 4.47423469e-11 0 
-0.00231598899 0.00207438629 0 
1.4276907e-09 -0.997142302 0 
0.997378882 -2.4270623e-14 -6.88976338e-14 
1.65493809e-09 4.48420024e-11 -2.15637619e-14 
-0.00231598899 0.00207438629 -7.47098035e-15 
1.42776974e-09 -0.997142302 -7.85588175e-15 
-0.00231598908 -0.00207438629 9.87253639e-14 
1.42756237e-09 0.997142302 -5.59057126e-14 
0.997378882 -1.46703582e-14 4.34578069e-14 
1.65495952e-09 4.48041427e-11 5.19390804e-15 
-0.00231598908 -0.00207438629 0 
1.42767764e-09 0.997142302 0 
0.997378882 -3.00202225e-13 0 
1.65483577e-09 4.49363534e-11 0 
1.42756237e-09 0.997142302 -1.35195576e-13 
0.00231599227 -0.00207438585 8.82777917e-14 
1.65495952e-09 4.47478094e-11 1.00519249e-13 
-0.997378878 1.89422202e-13 -3.52773165e-13 
1.42767764e-09 0.997142302 0 
0.00231599227 -0.00207438585 0 
1.65483577e-09 4.46769863e-11 0 
-0.997378878 -2.85899878e-13 0 
1.65486993e-09 4.47478094e-11 -1.84743256e-13 
-0.997378878 1.89422202e-13 2.79074121e-14 
1.42727432e-09 -0.997142302 3.5385828e-13 
0.00231599219 0.00207438585 -1.69752162e-14 
1.65493142e-09 4.46769863e-11 0 
-0.997378878 -2.85899878e-13 0 
1.42784562e-09 -0.997142302 0 
0.00231599219 0.00207438585 0 
0.997378882 -1.46703582e-14 -6.88976338e-14 
1.65486993e-09 4.48041427e-11 -2.15637619e-14 
-0.00231598899 0.00207438629 -7.47098035e-15 
1.42727432e-09 -0.997142302 -7.85588175e-15 
0.997378882 -3.00202225e-13 0 
1.65493142e-09 4.49363534e-11 0 
-0.00231598899 0.00207438629 0 
1.42784562e-09 -0.997142302 0 
0.00231599227 0.00207438638 0 
6.85870167e-10 -0.997142302 0 
-0.997378878 2.17367099e-13 0 
3.71876603e-10 -4.46808851e-11 0 
0.00231599227 0.00207438638 4.71175397e-14 
6.86203378e-10 -0.997142302 -1.82973895e-13 
-0.997378878 1.55215493e-13 3.95515314e-13 
3.71834777e-10 -4.49057379e-11 -9.9754273e-14 
6.85870167e-10 -0.997142302 0 
-0.00231599073 0.00207438576 0 
3.71876603e-10 -4.48397947e-11 0 
0.99737888 3.67198362e-13 0 
6.86203378e-10 -0.997142302 1.15314729e-13 
-0.00231599073 0.00207438576 -5.48662363e-14 
3.71834777e-10 -4.47060759e-11 -1.61157264e-13 
0.99737888 2.58126347e-13 1.12067881e-13 
3.72133687e-10 -4.48397947e-11 0 
0.99737888 3.67198362e-13 0 
6.85689654e-10 0.997142302 0 
-0.00231599064 -0.00207438576 0 
3.71708745e-10 -4.47060759e-11 -1.3153187e-13 
0.99737888 2.58126347e-13 3.52436242e-13 
6.8603491e-10 0.997142302 -6.26992857e-14 
-0.00231599064 -0.00207438576 -7.43425304e-14 
-0.997378878 2.17367099e-13 0 
3.72133687e-10 -4.46808851e-11 0 
0.00231599219 -0.00207438638 0 
6.85689654e-10 0.997142302 0 
-0.997378878 1.55215493e-13 -3.11979796e-14 
3.71708745e-10 -4.49057379e-11 3.1909845e-14 
0.00231599219 -0.00207438638 -7.7926776e-14 
6.8603491e-10 0.997142302 1.63606563e-13 
0.00231599227 0.00207438638 4.71175397e-14 
6.86035967e-10 -0.997142302 -1.82973895e-13 
-0.997378878 1.63514007e-13 3.95515314e-13 
3.71798645e-10 -4.48487856e-11 -9.9754273e-14 
0.00231599227 0.00207438638 0 
6.85936168e-10 -0.997142302 0 
-0.997378878 7.54648943e-14 0 
3.71957029e-10 -4.48169242e-11 0 
6.86035967e-10 -0.997142302 1.15314729e-13 
-0.00231599073 0.00207438576 -5.48662363e-14 
3.71798645e-10 -4.4960079e-11 -1.61157264e-13 
0.99737888 5.61235883e-13 1.12067881e-13 
6.85936168e-10 -0.997142302 0 
-0.00231599073 0.00207438576 0 
3.71957029e-10 -4.47116821e-11 0 
0.99737888 -9.56714115e-14 0 
3.72064957e-10 -4.4960079e-11 -1.3153187e-13 
0.99737888 5.61235883e-13 3.52436242e-13 
6.8574801e-10 0.997142302 -6.26992857e-14 
-0.00231599064 -0.00207438576 -7.43425304e-14 
3.71859192e-10 -4.47116821e-11 0 
0.99737888 -9.56714115e-14 0 
6.85892784e-10 0.997142302 0 
-0.00231599064 -0.00207438576 0 
-0.997378878 1.63514007e-13 -3.11979796e-14 
3.72064957e-10 -4.48487856e-11 3.1909845e-14 
0.00231599219 -0.00207438638 -7.7926776e-14 
6.8574801e-10 0.997142302 1.63606563e-13 
-0.997378878 7.54648943e-14 0 
3.71859192e-10 -4.48169242e-11 0 
0.00231599219 -0.00207438638 0 
6.85892784e-10 0.997142302 0 
-0.00231599073 -0.00207438647 0 
6.84536338e-10 0.997142302 0 
0.99737888 -2.14425767e-13 0 
1.08814993e-09 4.49040609e-11 0 
-0.00231599073 -0.00207438647 -2.31066925e-14 
6.84364078e-10 0.997142302 -7.98387026e-14 
0.99737888 -1.66600409e-13 -1.31306079e-13 
1.08834379e-09 4.48201616e-11 2.93126613e-14 
6.84536338e-10 0.997142302 0 
0.00231599227 -0.00207438567 0 
1.08814993e-09 4.45176708e-11 0 
-0.997378878 6.92621941e-14 0 
6.84364078e-10 0.997142302 1.66789593e-14 
0.00231599227 -0.00207438567 1.28776534e-13 
1.08834379e-09 4.48746814e-11 -3.71353793e-14 
-0.997378878 -9.55647947e-14 -5.50153e-14 
1.088316e-09 4.45176708e-11 0 
-0.997378878 6.92621941e-14 0 
6.8443994e-10 -0.997142302 0 
0.00231599219 0.00207438567 0 
1.0882736e-09 4.48746814e-11 -6.73395492e-15 
-0.997378878 -9.55647947e-14 7.22612832e-15 
6.84015676e-10 -0.997142302 -2.06299316e-13 
0.00231599219 0.00207438567 2.6429779e-15 
0.99737888 -2.14425767e-13 0 
1.088316e-09 4.49040609e-11 0 
-0.00231599064 0.00207438647 0 
6.8443994e-10 -0.997142302 0 
0.99737888 -1.66600409e-13 -2.22985777e-13 
1.0882736e-09 4.48201616e-11 -3.87050323e-14 
-0.00231599064 0.00207438647 2.73054214e-13 
6.84015676e-10 -0.997142302 -5.52619887e-14 
-0.00231599073 -0.00207438647 -2.31066925e-14 
6.84688764e-10 0.997142302 -7.98387026e-14 
0.99737888 -1.32313928e-13 -1.31306079e-13 
1.08805006e-09 4.49080709e-11 2.93126613e-14 
-0.00231599073 -0.00207438647 0 
6.84260482e-10 0.997142302 0 
0.99737888 -1.98278301e-13 0 
1.08837221e-09 4.47990345e-11 0 
6.84688764e-10 0.997142302 1.66789593e-14 
0.00231599227 -0.00207438567 1.28776534e-13 
1.08805006e-09 4.46583643e-11 -3.71353793e-14 
-0.997378878 -9.34722549e-14 -5.50153e-14 
6.84260482e-10 0.997142302 0 
0.00231599227 -0.00207438567 0 
1.08837221e-09 4.47765576e-11 0 
-0.997378878 -3.08150472e-13 0 
1.08829328e-09 4.46583643e-11 -6.73395492e-15 
-0.997378878 -9.34722549e-14 7.22612832e-15 
6.84204216e-10 -0.997142302 -2.06299316e-13 
0.00231599219 0.00207438567 2.6429779e-15 
1.08833533e-09 4.47765576e-11 0 
-0.997378878 -3.08150472e-13 0 
6.8432674e-10 -0.997142302 0 
0.00231599219 0.00207438567 0 
0.99737888 -1.32313928e-13 -2.22985777e-13 
1.08829328e-09 4.49080709e-11 -3.87050323e-14 
-0.00231599064 0.00207438647 2.73054214e-13 
6.84204216e-10 -0.997142302 -5.52619887e-14 
0.99737888 -1.98278301e-13 0 
1.08833533e-09 4.47990345e-11 0 
-0.00231599064 0.00207438647 0 
6.8432674e-10 -0.997142302 0 
0.00231599227 0.00207438656 0 
1.42924541e-09 -0.997142302 0 
-0.997378878 1.65072744e-13 0 
9.38550582e-10 -4.4641498e-11 0 
0.00231599227 0.00207438656 -3.42047351e-14 
1.42945124e-09 -0.997142302 -2.2105738e-13 
-0.997378878 -1.02665521e-13 -3.35459479e-14 
9.38375925e-10 -4.47586938e-11 -2.49766198e-14 
1.42924541e-09 -0.997142302 0 
-0.00231598908 0.00207438558 0 
9.38550582e-10 -4.47004333e-11 0 
0.997378882 1.18581736e-13 0 
1.42945124e-09 -0.997142302 1.88001272e-13 
-0.00231598908 0.00207438558 5.91215618e-14 
9.38375925e-10 -4.4725782e-11 -1.16456783e-13 
0.997378882 -4.12797968e-14 -5.97024196e-14 
9.38438413e-10 -4.47004333e-11 0 
0.997378882 1.18581736e-13 0 
1.42920562e-09 0.997142302 0 
-0.00231598899 -0.00207438558 0 
9.38383365e-10 -4.4725782e-11 -1.10406856e-13 
0.997378882 -4.12797968e-14 1.60607533e-13 
1.42945883e-09 0.997142302 1.3637842e-13 
-0.00231598899 -0.00207438558 5.40224716e-14 
-0.997378878 1.65072744e-13 0 
9.38438413e-10 -4.4641498e-11 0 
0.00231599219 -0.00207438656 0 
1.42920562e-09 0.997142302 0 
-0.997378878 -1.02665521e-13 1.15976231e-13 
9.38383365e-10 -4.47586938e-11 2.5272686e-14 
0.00231599219 -0.00207438656 -1.12442531e-13 
1.42945883e-09 0.997142302 8.72091795e-14 
0.00231599227 0.00207438656 -3.42047351e-14 
1.42947388e-09 -0.997142302 -2.2105738e-13 
-0.997378878 1.43553347e-13 -3.35459479e-14 
9.38423264e-10 -4.48304931e-11 -2.49766198e-14 
0.00231599227 0.00207438656 0 
1.42906644e-09 -0.997142302 0 
-0.997378878 2.20624954e-13 0 
9.3851119e-10 -4.48218891e-11 0 
1.42947388e-09 -0.997142302 1.88001272e-13 
-0.00231598908 0.00207438558 5.91215618e-14 
9.38423264e-10 -4.48415715e-11 -1.16456783e-13 
0.997378882 2.96950573e-13 -5.97024196e-14 
1.42906644e-09 -0.997142302 0 
-0.00231598908 0.00207438558 0 
9.3851119e-10 -4.46708135e-11 0 
0.997378882 -5.87573711e-14 0 
9.38455012e-10 -4.48415715e-11 -1.10406856e-13 
0.997378882 2.96950573e-13 1.60607533e-13 
1.42948745e-09 0.997142302 1.3637842e-13 
-0.00231598899 -0.00207438558 5.40224716e-14 
9.38436302e-10 -4.46708135e-11 0 
0.997378882 -5.87573711e-14 0 
1.42931245e-09 0.997142302 0 
-0.00231598899 -0.00207438558 0 
-0.997378878 1.43553347e-13 1.15976231e-13 
9.38455012e-10 -4.48304931e-11 2.5272686e-14 
0.00231599219 -0.00207438656 -1.12442531e-13 
1.42948745e-09 0.997142302 8.72091795e-14 
-0.997378878 2.20624954e-13 0 
9.38436302e-10 -4.48218891e-11 0 
0.00231599219 -0.00207438656 0 
1.42931245e-09 0.997142302 0 
-0.00231598908 -0.00207438665 0 
3.11222645e-09 0.997142302 0 
0.997378882 -1.47575988e-13 0 
4.92192167e-09 4.4724702e-11 0 
-0.00231598908 -0.00207438665 -3.46573857e-14 
3.11236194e-09 0.997142302 -8.57065341e-14 
0.997378882 2.12998128e-13 1.18038007e-13 
4.92211997e-09 4.48330301e-11 -1.6939478e-13 
3.11222645e-09 0.997142302 0 
0.00231600021 -0.00207438549 0 
4.92192167e-09 4.46385031e-11 0 
-0.997378876 3.364171e-13 0 
3.11236194e-09 0.997142302 1.00827263e-13 
0.00231600021 -0.00207438549 1.90329163e-13 
4.92211997e-09 4.47754573e-11 1.90008591e-13 
-0.997378876 -2.41843411e-13 -2.62855175e-13 
4.9220737e-09 4.46385031e-11 0 
-0.997378876 3.364171e-13 0 
3.11229442e-09 -0.997142302 0 
0.00231600012 0.00207438549 0 
4.92217456e-09 4.47754573e-11 -6.89321011e-14 
-0.997378876 -2.41843411e-13 1.75677306e-13 
3.11226757e-09 -0.997142302 -1.969979e-13 
0.00231600012 0.00207438549 -1.88641847e-14 
0.997378882 -1.47575988e-13 0 
4.9220737e-09 4.4724702e-11 0 
-0.00231598899 0.00207438665 0 
3.11229442e-09 -0.997142302 0 
0.997378882 2.12998128e-13 3.60400533e-14 
4.92217456e-09 4.48330301e-11 1.41833098e-13 
-0.00231598899 0.00207438665 4.52803323e-14 
3.11226757e-09 -0.997142302 -2.41539264e-13 
-0.00231598908 -0.00207438665 -3.46573857e-14 
3.11214907e-09 0.997142302 -8.57065341e-14 
0.997378882 -4.40604778e-13 1.18038007e-13 
4.92183422e-09 4.48617784e-11 -1.6939478e-13 
-0.00231598908 -0.00207438665 0 
3.11241189e-09 0.997142302 0 
0.997378882 -1.66272767e-13 0 
4.92205319e-09 4.4937527e-11 0 
3.11214907e-09 0.997142302 1.00827263e-13 
0.00231600021 -0.00207438549 1.90329163e-13 
4.92183422e-09 4.48162552e-11 1.90008591e-13 
-0.997378876 -1.62898984e-14 -2.62855175e-13 
3.11241189e-09 0.997142302 0 
0.00231600021 -0.00207438549 0 
4.92205319e-09 4.46652293e-11 0 
-0.997378876 1.39411653e-14 0 
4.92224988e-09 4.48162552e-11 -6.89321011e-14 
-0.997378876 -1.62898984e-14 1.75677306e-13 
3.11198883e-09 -0.997142302 -1.969979e-13 
0.00231600012 0.00207438549 -1.88641847e-14 
4.92215664e-09 4.46652293e-11 0 
-0.997378876 1.39411653e-14 0 
3.11224631e-09 -0.997142302 0 
0.00231600012 0.00207438549 0 
0.997378882 -4.40604778e-13 3.60400533e-14 
4.92224988e-09 4.48617784e-11 1.41833098e-13 
-0.00231598899 0.00207438665 4.52803323e-14 
3.11198883e-09 -0.997142302 -2.41539264e-13 
0.997378882 -1.66272767e-13 0 
4.92215664e-09 4.4937527e-11 0 
-0.00231598899 0.00207438665 0 
3.11224631e-09 -0.997142302 0 
0.00231600021 0.00207438674 0 
1.92171909e-06 -0.997142302 0 
-0.997378876 -1.46818377e-13 0 
-1.88599891e-06 -4.46278303e-11 0 
0.00231600021 0.00207438674 7.37265199e-15 
1.92171907e-06 -0.997142302 -3.94352682e-14 
-0.997378876 2.09271172e-13 8.10913463e-14 
-1.88599876e-06 -4.46032172e-11 -2.83986789e-13 
1.92171909e-06 -0.997142302 0 
-0.00207438611 0.0020743854 0 
-1.88599891e-06 -4.47637489e-11 0 
0.997142302 2.41219419e-15 0 
1.92171907e-06 -0.997142302 2.6215781e-13 
-0.00207438611 0.0020743854 -7.44276591e-14 
-1.88599876e-06 -4.48083111e-11 -3.55736507e-14 
0.997142302 2.31753192e-13 8.94246455e-14 
-1.88599864e-06 -4.47637489e-11 0 
0.997142302 2.41219419e-15 0 
1.92171881e-06 0.997142302 0 
-0.00207438602 -0.0020743854 0 
-1.88599892e-06 -4.48083111e-11 2.37839639e-14 
0.997142302 2.31753192e-13 -4.909498e-14 
1.92171898e-06 0.997142302 7.77472975e-14 
-0.00207438602 -0.0020743854 -1.11164722e-13 
-0.997378876 -1.46818377e-13 0 
-1.88599864e-06 -4.46278303e-11 0 
0.00231600012 -0.00207438674 0 
1.92171881e-06 0.997142302 0 
-0.997378876 2.09271172e-13 1.34215856e-16 
-1.88599892e-06 -4.46032172e-11 1.53276684e-13 
0.00231600012 -0.00207438674 -2.56842342e-14 
1.92171898e-06 0.997142302 8.79016435e-14 
0.00231600021 0.00207438674 7.37265199e-15 
1.9217187e-06 -0.997142302 -3.94352682e-14 
-0.997378876 2.93320795e-13 8.10913463e-14 
-1.88599865e-06 -4.50318829e-11 -2.83986789e-13 
0.00231600021 0.00207438674 0 
1.92171905e-06 -0.997142302 0 
-0.997378876 -2.64719366e-13 0 
-1.88599878e-06 -4.47251576e-11 0 
1.9217187e-06 -0.997142302 2.6215781e-13 
-0.00207438611 0.0020743854 -7.44276591e-14 
-1.88599865e-06 -4.47757089e-11 -3.55736507e-14 
0.997142302 2.92354468e-13 8.94246455e-14 
1.92171905e-06 -0.997142302 0 
-0.00207438611 0.0020743854 0 
-1.88599878e-06 -4.48173697e-11 0 
0.997142302 1.64208263e-13 0 
-1.88599894e-06 -4.47757089e-11 2.37839639e-14 
0.997142302 2.92354468e-13 -4.909498e-14 
1.92171953e-06 0.997142302 7.77472975e-14 
-0.00207438602 -0.0020743854 -1.11164722e-13 
-1.88599883e-06 -4.48173697e-11 0 
0.997142302 1.64208263e-13 0 
1.92171875e-06 0.997142302 0 
-0.00207438602 -0.0020743854 0 
-0.997378876 2.93320795e-13 1.34215856e-16 
-1.88599894e-06 -4.50318829e-11 1.53276684e-13 
0.00231600012 -0.00207438674 -2.56842342e-14 
1.92171953e-06 0.997142302 8.79016435e-14 
-0.997378876 -2.64719366e-13 0 
-1.88599883e-06 -4.47251576e-11 0 
0.00231600012 -0.00207438674 0 
1.92171875e-06 0.997142302 0 
</DataArray>
<DataArray type="Float64" Name="divF" NumberOfComponents="1"  format="ascii" >
-3.13325751
-3.13325751
-3.13325751
-3.13325751
-3.13325751
-3.13325751
-3.13325751
-3.13325751
-3.13325751
-3.13325751
-3.13325751
-3.13325751
-3.13325751
-3.13325751
-3.13325751
-3.13325751
-3.13325751
-3.13325751
-3.13325751
-3.13325751
-3.13325751
-3.13325751
-3.13325751
-3.13325751
-3.13325751
-3.13325751
-3.13325751
-3.13325751
-3.13325751
-3.13325751
-3.13325751
-3.13325751
-3.13325751
-3.13325751
-3.13325751
-3.13325751
-3.13325751
-3.13325751
-3.13325751
-3.13325751
-3.13325751
-3.13325751
-3.13325751
-3.13325751
-3.13325751
-3.13325751
-3.13325751
-3.13325751
-3.13325751
-3.13325751
-3.13325751
-3.13325751
-3.13325751
-3.13325751
-3.13325751
-3.13325751
-3.13325751
-3.13325751
-3.13325751
-3.13325751
-3.13325751
-3.13325751
-3.13325751
-3.13325751
3.13325749
3.13325749
3.13325749
3.13325749
3.13325749
3.13325749
3.13325749
3.13325749
3.1332575
3.1332575
3.1332575
3.1332575
3.1332575
3.1332575
3.1332575
3.1332575
3.1332575
3.1332575
3.1332575
3.1332575
3.1332575
3.1332575
3.1332575
3.1332575
3.13325749
3.13325749
3.13325749
3.13325749
3.13325749
3.13325749
3.13325749
3.13325749
3.13325749
3.13325749
3.13325749
3.13325749
3.13325749
3.13325749
3.13325749
3.13325749
3.1332575
3.1332575
3.1332575
3.1332575
3.1332575
3.1332575
3.1332575
3.1332575
3.1332575
3.1332575
3.1332575
3.1332575
3.1332575
3.1332575
3.1332575
3.1332575
3.13325749
3.13325749
3.13325749
3.13325749
3.13325749
3.13325749
3.13325749
3.13325749
-3.1332575
-3.1332575
-3.1332575
-3.1332575
-3.1332575
-3.1332575
-3.1332575
-3.1332575
-3.1332575
-3.1332575
-3.1332575
-3.1332575
-3.1332575
-3.1332575
-3.1332575
-3.1332575
-3.1332575
-3.1332575
-3.1332575
-3.1332575
-3.1332575
-3.1332575
-3.1332575
-3.1332575
-3.1332575
-3.1332575
-3.1332575
-3.1332575
-3.1332575
-3.1332575
-3.1332575
-3.1332575
-3.1332575
-3.1332575
-3.1332575
-3.1332575
-3.1332575
-3.1332575
-3.1332575
-3.1332575
-3.1332575
-3.1332575
-3.1332575
-3.1332575
-3.1332575
-3.1332575
-3.1332575
-3.1332575
-3.1332575
-3.1332575
-3.1332575
-3.1332575
-3.1332575
-3.1332575
-3.1332575
-3.1332575
-3.1332575
-3.1332575
-3.1332575
-3.1332575
-3.1332575
-3.1332575
-3.1332575
-3.1332575
3.1332575
3.1332575
3.1332575
3.1332575
3.1332575
3.1332575
3.1332575
3.1332575
3.1332575
3.1332575
3.1332575
3.1332575
3.1332575
3.1332575
3.1332575
3.1332575
3.1332575
3.1332575
3.1332575
3.1332575
3.1332575
3.1332575
3.1332575