<VTKFile type="UnstructuredGrid" version="2.2" byte_order="LittleEndian">
<UnstructuredGrid>
<Piece NumberOfPoints="152" NumberOfCells="38">
<Points>
<DataArray type="Float64" NumberOfComponents="3" format="ascii">
-0.3 0 0
-0.34 0.166666667 0
-0.3 0.166666667 0
-0.34 0 0
-0.26 0.166666667 0
-0.3 0 0
-0.26 0 0
-0.3 0.166666667 0
0.22 0.166666667 0
0.18 0 0
0.22 0 0
0.18 0.166666667 0
0.5 0.166666667 0
0.46 0 0
0.5 0 0
0.46 0.166666667 0
0.54 0.166666667 0
0.5 0 0
0.54 0 0
0.5 0.166666667 0
0.62 0.166666667 0
0.58 0 0
0.62 0 0
0.58 0.166666667 0
0.66 0.166666667 0
0.62 0 0
0.66 0 0
0.62 0.166666667 0
0.7 0.166666667 0
0.66 0 0
0.7 0 0
0.66 0.166666667 0
0.78 0.166666667 0
0.74 0 0
0.78 0 0
0.74 0.166666667 0
0.82 0 0
0.78 0.166666667 0
0.82 0.166666667 0
0.78 0 0
0.86 0 0
0.82 0.166666667 0
0.86 0.166666667 0
0.82 0 0
1.22 0.166666667 0
1.18 0 0
1.22 0 0
1.18 0.166666667 0
1.42 0.166666667 0
1.38 0 0
1.42 0 0
1.38 0.166666667 0
1.46 0.166666667 0
1.42 0 0
1.46 0 0
1.42 0.166666667 0
0.22 0.333333333 0
0.18 0.166666667 0
0.22 0.166666667 0
0.18 0.333333333 0
0.26 0.333333333 0
0.22 0.166666667 0
0.26 0.166666667 0
0.22 0.333333333 0
0.34 0.333333333 0
0.3 0.166666667 0
0.34 0.166666667 0
0.3 0.333333333 0
0.5 0.333333333 0
0.46 0.166666667 0
0.5 0.166666667 0
0.46 0.333333333 0
0.66 0.333333333 0
0.62 0.166666667 0
0.66 0.166666667 0
0.62 0.333333333 0
0.82 0.333333333 0
0.78 0.166666667 0
0.82 0.166666667 0
0.78 0.333333333 0
0.86 0.166666667 0
0.82 0.333333333 0
0.86 0.333333333 0
0.82 0.166666667 0
0.9 0.333333333 0
0.86 0.166666667 0
0.9 0.166666667 0
0.86 0.333333333 0
1.26 0.166666667 0
1.22 0.333333333 0
1.26 0.333333333 0
1.22 0.166666667 0
1.3 0.166666667 0
1.26 0.333333333 0
1.3 0.333333333 0
1.26 0.166666667 0
1.42 0.166666667 0
1.38 0.333333333 0
1.42 0.333333333 0
1.38 0.166666667 0
-0.02 0.5 0
-0.06 0.333333333 0
-0.02 0.333333333 0
-0.06 0.5 0
0.02 0.333333333 0
-0.02 0.5 0
0.02 0.5 0
-0.02 0.333333333 0
0.18 0.5 0
0.14 0.333333333 0
0.18 0.333333333 0
0.14 0.5 0
0.22 0.5 0
0.18 0.333333333 0
0.22 0.333333333 0
0.18 0.5 0
0.62 0.333333333 0
0.58 0.5 0
0.62 0.5 0
0.58 0.333333333 0
0.66 0.5 0
0.62 0.333333333 0
0.66 0.333333333 0
0.62 0.5 0
0.7 0.5 0
0.66 0.333333333 0
0.7 0.333333333 0
0.66 0.5 0
0.86 0.333333333 0
0.82 0.5 0
0.86 0.5 0
0.82 0.333333333 0
0.9 0.5 0
0.86 0.333333333 0
0.9 0.333333333 0
0.86 0.5 0
0.94 0.333333333 0
0.9 0.5 0
0.94 0.5 0
0.9 0.333333333 0
0.98 0.333333333 0
0.94 0.5 0
0.98 0.5 0
0.94 0.333333333 0
1.02 0.333333333 0
0.98 0.5 0
1.02 0.5 0
0.98 0.333333333 0
1.18 0.333333333 0
1.14 0.5 0
1.18 0.5 0
1.14 0.333333333 0
</DataArray>
</Points>
<Cells>
<DataArray type="Int32" Name="connectivity" format="ascii">
0 1 2 3 
4 5 6 7 
8 9 10 11 
12 13 14 15 
16 17 18 19 
20 21 22 23 
24 25 26 27 
28 29 30 31 
32 33 34 35 
36 37 38 39 
40 41 42 43 
44 45 46 47 
48 49 50 51 
52 53 54 55 
56 57 58 59 
60 61 62 63 
64 65 66 67 
68 69 70 71 
72 73 74 75 
76 77 78 79 
80 81 82 83 
84 85 86 87 
88 89 90 91 
92 93 94 95 
96 97 98 99 
100 101 102 103 
104 105 106 107 
108 109 110 111 
112 113 114 115 
116 117 118 119 
120 121 122 123 
124 125 126 127 
128 129 130 131 
132 133 134 135 
136 137 138 139 
140 141 142 143 
144 145 146 147 
148 149 150 151 
</DataArray>
<DataArray type="Int32" Name="offsets" format="ascii">
4
8
12
16
20
24
28
32
36
40
44
48
52
56
60
64
68
72
76
80
84
88
92
96
100
104
108
112
116
120
124
128
132
136
140
144
148
152
</DataArray>
<DataArray type="UInt8" Name="types" format="ascii">
10
10
10
10
10
10
10
10
10
10
10
10
10
10
10
10
10
10
10
10
10
10
10
10
10
10
10
10
10
10
10
10
10
10
10
10
10
10
</DataArray>
</Cells>
<CellData Scalars="attribute">
<DataArray type="Int32" Name="attribute" format="ascii">
1
1
1
1
1
1
1
1
1
1
1
1
1
1
1
1
1
1
1
1
1
1
1
1
1
1
1
1
1
1
1
1
1
1
1
1
1
1
</DataArray>
</CellData>
<PointData >
<DataArray type="Float64" Name="indicator_nodal" NumberOfComponents="1"  format="ascii" >
-nan
-nan
-nan
-nan
-nan
-nan
-nan
-nan
-nan
-nan
-nan
-nan
1
1
1
1
1
1
1
1
1
1
1
1
-nan
-nan
-nan
-nan
-nan
-nan
-nan
-nan
-nan
-nan
-nan
-nan
-nan
-nan
-nan
-nan
-nan
-nan
-nan
-nan
-nan
-nan
-nan
-nan
-nan
-nan
-nan
-nan
-nan
-nan
-nan
-nan
-nan
-nan
-nan
-nan
-nan
-nan
-nan
-nan
-nan
-nan
-nan
-nan
1
1
1
1
-nan
-nan
-nan
-nan
-nan
-nan
-nan
-nan
-nan
-nan
-nan
-nan
-nan
-nan
-nan
-nan
-nan
-nan
-nan
-nan
-nan
-nan
-nan
-nan
-nan
-nan
-nan
-nan
-nan
-nan
-nan
-nan
-nan
-nan
-nan
-nan
-nan
-nan
-nan
-nan
-nan
-nan
-nan
-nan
1
1
1
1
-nan
-nan
-nan
-nan
-nan
-nan
-nan
-nan
-nan
-nan
-nan
-nan
-nan
-nan
-nan
-nan
-nan
-nan
-nan
-nan
-nan
-nan
-nan
-nan
-nan
-nan
-nan
-nan
-nan
-nan
-nan
-nan
</DataArray>
</PointData>
</Piece>
</UnstructuredGrid>
</VTKFile>
