<VTKFile type="UnstructuredGrid" version="0.1" byte_order="LittleEndian">
<UnstructuredGrid>
<Piece NumberOfPoints="64" NumberOfCells="16">
<Points>
<DataArray type="Float64" NumberOfComponents="3" format="ascii">
0 0 0
0.25 0 0
0 0.25 0
0.25 0.25 0
0.25 0 0
0.5 0 0
0.25 0.25 0
0.5 0.25 0
0.25 0.25 0
0.5 0.25 0
0.25 0.5 0
0.5 0.5 0
0 0.25 0
0.25 0.25 0
0 0.5 0
0.25 0.5 0
0 0.5 0
0.25 0.5 0
0 0.75 0
0.25 0.75 0
0 0.75 0
0.25 0.75 0
0 1 0
0.25 1 0
0.25 0.75 0
0.5 0.75 0
0.25 1 0
0.5 1 0
0.25 0.5 0
0.5 0.5 0
0.25 0.75 0
0.5 0.75 0
0.5 0.5 0
0.75 0.5 0
0.5 0.75 0
0.75 0.75 0
0.5 0.75 0
0.75 0.75 0
0.5 1 0
0.75 1 0
0.75 0.75 0
1 0.75 0
0.75 1 0
1 1 0
0.75 0.5 0
1 0.5 0
0.75 0.75 0
1 0.75 0
0.75 0.25 0
1 0.25 0
0.75 0.5 0
1 0.5 0
0.5 0.25 0
0.75 0.25 0
0.5 0.5 0
0.75 0.5 0
0.5 0 0
0.75 0 0
0.5 0.25 0
0.75 0.25 0
0.75 0 0
1 0 0
0.75 0.25 0
1 0.25 0
</DataArray>
</Points>
<Cells>
<DataArray type="Int32" Name="connectivity" format="ascii">
0 1 3 2 
4 5 7 6 
8 9 11 10 
12 13 15 14 
16 17 19 18 
20 21 23 22 
24 25 27 26 
28 29 31 30 
32 33 35 34 
36 37 39 38 
40 41 43 42 
44 45 47 46 
48 49 51 50 
52 53 55 54 
56 57 59 58 
60 61 63 62 
</DataArray>
<DataArray type="Int32" Name="offsets" format="ascii">
4
8
12
16
20
24
28
32
36
40
44
48
52
56
60
64
</DataArray>
<DataArray type="UInt8" Name="types" format="ascii">
9
9
9
9
9
9
9
9
9
9
9
9
9
9
9
9
</DataArray>
</Cells>
<CellData Scalars="attribute">
<DataArray type="Int32" Name="attribute" format="ascii">
1
1
1
1
1
1
1
1
1
1
1
1
1
1
1
1
</DataArray>
</CellData>
<PointData >
<DataArray type="Float64" Name="u_i" NumberOfComponents="1"  format="ascii" >
0
0
0.00538653
0
0
0
0
0
0
0
0
0
0.00538653
0
-0.00150822
0
-0.00150822
0
0.000316569
0
0.000316569
0
-5.90341e-05
-5.90341e-05
0
0
-5.90341e-05
-5.90341e-05
0
0
0
0
0
0
0
0
0
0
-5.90341e-05
-5.90341e-05
0
0.000316569
-5.90341e-05
-5.90341e-05
0
-0.00150822
0
0.000316569
0
0.00538653
0
-0.00150822
0
0
0
0
0
0
0
0
0
0
0
0.00538653
</DataArray>
<DataArray type="Float64" Name="u_r" NumberOfComponents="1"  format="ascii" >
1
1
-0.139999
0
1
1
0
0
0
0
0
0
-0.139999
0
0.0195708
0
0.0195708
0
-0.00273177
0
-0.00273177
0
0.000380741
0.000380741
0
0
0.000380741
0.000380741
0
0
0
0
0
0
0
0
0
0
0.000380741
0.000380741
0
-0.00273177
0.000380741
0.000380741
0
0.0195708
0
-0.00273177
0
-0.139999
0
0.0195708
0
0
0
0
1
1
0
0
1
1
0
-0.139999
</DataArray>
</PointData>
</Piece>
</UnstructuredGrid>
</VTKFile>
