<VTKFile type="UnstructuredGrid" version="2.2" byte_order="LittleEndian">
<UnstructuredGrid>
<Piece NumberOfPoints="1472" NumberOfCells="184">
<Points>
<DataArray type="Float64" NumberOfComponents="3" format="ascii">
0 0 0
0.1 0 0
0 0.1 0
0.1 0.1 0
0 0 0.1
0.1 0 0.1
0 0.1 0.1
0.1 0.1 0.1
0 0.1 0
0.1 0.1 0
0 0.2 0
0.1 0.2 0
0 0.1 0.1
0.1 0.1 0.1
0 0.2 0.1
0.1 0.2 0.1
0 0.2 0
0.1 0.2 0
0 0.3 0
0.1 0.3 0
0 0.2 0.1
0.1 0.2 0.1
0 0.3 0.1
0.1 0.3 0.1
0 0.3 0
0.1 0.3 0
0 0.4 0
0.1 0.4 0
0 0.3 0.1
0.1 0.3 0.1
0 0.4 0.1
0.1 0.4 0.1
0 0.4 0
0.1 0.4 0
0 0.5 0
0.1 0.5 0
0 0.4 0.1
0.1 0.4 0.1
0 0.5 0.1
0.1 0.5 0.1
0 0.5 0
0.1 0.5 0
0 0.6 0
0.1 0.6 0
0 0.5 0.1
0.1 0.5 0.1
0 0.6 0.1
0.1 0.6 0.1
0 0.6 0
0.1 0.6 0
0 0.7 0
0.1 0.7 0
0 0.6 0.1
0.1 0.6 0.1
0 0.7 0.1
0.1 0.7 0.1
0 0.7 0
0.1 0.7 0
0 0.8 0
0.1 0.8 0
0 0.7 0.1
0.1 0.7 0.1
0 0.8 0.1
0.1 0.8 0.1
0 0.8 0
0.1 0.8 0
0 0.9 0
0.1 0.9 0
0 0.8 0.1
0.1 0.8 0.1
0 0.9 0.1
0.1 0.9 0.1
0 0.9 0
0.1 0.9 0
0 1 0
0.1 1 0
0 0.9 0.1
0.1 0.9 0.1
0 1 0.1
0.1 1 0.1
0.1 0 0
0.2 0 0
0.1 0.1 0
0.2 0.1 0
0.1 0 0.1
0.2 0 0.1
0.1 0.1 0.1
0.2 0.1 0.1
0.1 0.1 0
0.2 0.1 0
0.1 0.2 0
0.2 0.2 0
0.1 0.1 0.1
0.2 0.1 0.1
0.1 0.2 0.1
0.2 0.2 0.1
0.1 0.2 0
0.2 0.2 0
0.1 0.3 0
0.2 0.3 0
0.1 0.2 0.1
0.2 0.2 0.1
0.1 0.3 0.1
0.2 0.3 0.1
0.1 0.3 0
0.2 0.3 0
0.1 0.4 0
0.2 0.4 0
0.1 0.3 0.1
0.2 0.3 0.1
0.1 0.4 0.1
0.2 0.4 0.1
0.1 0.4 0
0.2 0.4 0
0.1 0.5 0
0.2 0.5 0
0.1 0.4 0.1
0.2 0.4 0.1
0.1 0.5 0.1
0.2 0.5 0.1
0.1 0.5 0
0.2 0.5 0
0.1 0.6 0
0.2 0.6 0
0.1 0.5 0.1
0.2 0.5 0.1
0.1 0.6 0.1
0.2 0.6 0.1
0.1 0.6 0
0.2 0.6 0
0.1 0.7 0
0.2 0.7 0
0.1 0.6 0.1
0.2 0.6 0.1
0.1 0.7 0.1
0.2 0.7 0.1
0.1 0.7 0
0.2 0.7 0
0.1 0.8 0
0.2 0.8 0
0.1 0.7 0.1
0.2 0.7 0.1
0.1 0.8 0.1
0.2 0.8 0.1
0.1 0.8 0
0.2 0.8 0
0.1 0.9 0
0.2 0.9 0
0.1 0.8 0.1
0.2 0.8 0.1
0.1 0.9 0.1
0.2 0.9 0.1
0.1 0.9 0
0.2 0.9 0
0.1 1 0
0.2 1 0
0.1 0.9 0.1
0.2 0.9 0.1
0.1 1 0.1
0.2 1 0.1
0.2 0 0
0.3 0 0
0.2 0.1 0
0.3 0.1 0
0.2 0 0.1
0.3 0 0.1
0.2 0.1 0.1
0.3 0.1 0.1
0.2 0.1 0
0.3 0.1 0
0.2 0.2 0
0.3 0.2 0
0.2 0.1 0.1
0.3 0.1 0.1
0.2 0.2 0.1
0.3 0.2 0.1
0.2 0.2 0
0.3 0.2 0
0.2 0.3 0
0.3 0.3 0
0.2 0.2 0.1
0.3 0.2 0.1
0.2 0.3 0.1
0.3 0.3 0.1
0.2 0.3 0
0.3 0.3 0
0.2 0.4 0
0.3 0.4 0
0.2 0.3 0.1
0.3 0.3 0.1
0.2 0.4 0.1
0.3 0.4 0.1
0.2 0.4 0
0.3 0.4 0
0.2 0.5 0
0.3 0.5 0
0.2 0.4 0.1
0.3 0.4 0.1
0.2 0.5 0.1
0.3 0.5 0.1
0.2 0.5 0
0.3 0.5 0
0.2 0.6 0
0.3 0.6 0
0.2 0.5 0.1
0.3 0.5 0.1
0.2 0.6 0.1
0.3 0.6 0.1
0.2 0.6 0
0.3 0.6 0
0.2 0.7 0
0.3 0.7 0
0.2 0.6 0.1
0.3 0.6 0.1
0.2 0.7 0.1
0.3 0.7 0.1
0.2 0.7 0
0.3 0.7 0
0.2 0.8 0
0.3 0.8 0
0.2 0.7 0.1
0.3 0.7 0.1
0.2 0.8 0.1
0.3 0.8 0.1
0.2 0.8 0
0.3 0.8 0
0.2 0.9 0
0.3 0.9 0
0.2 0.8 0.1
0.3 0.8 0.1
0.2 0.9 0.1
0.3 0.9 0.1
0.2 0.9 0
0.3 0.9 0
0.2 1 0
0.3 1 0
0.2 0.9 0.1
0.3 0.9 0.1
0.2 1 0.1
0.3 1 0.1
0.3 0 0
0.4 0 0
0.3 0.1 0
0.4 0.1 0
0.3 0 0.1
0.4 0 0.1
0.3 0.1 0.1
0.4 0.1 0.1
0.3 0.1 0
0.4 0.1 0
0.3 0.2 0
0.4 0.2 0
0.3 0.1 0.1
0.4 0.1 0.1
0.3 0.2 0.1
0.4 0.2 0.1
0.3 0.2 0
0.4 0.2 0
0.3 0.3 0
0.4 0.3 0
0.3 0.2 0.1
0.4 0.2 0.1
0.3 0.3 0.1
0.4 0.3 0.1
0.3 0.3 0
0.4 0.3 0
0.3 0.4 0
0.4 0.4 0
0.3 0.3 0.1
0.4 0.3 0.1
0.3 0.4 0.1
0.4 0.4 0.1
0.3 0.4 0
0.4 0.4 0
0.3 0.5 0
0.4 0.5 0
0.3 0.4 0.1
0.4 0.4 0.1
0.3 0.5 0.1
0.4 0.5 0.1
0.3 0.5 0
0.4 0.5 0
0.3 0.6 0
0.4 0.6 0
0.3 0.5 0.1
0.4 0.5 0.1
0.3 0.6 0.1
0.4 0.6 0.1
0.3 0.6 0
0.4 0.6 0
0.3 0.7 0
0.4 0.7 0
0.3 0.6 0.1
0.4 0.6 0.1
0.3 0.7 0.1
0.4 0.7 0.1
0.3 0.7 0
0.4 0.7 0
0.3 0.8 0
0.4 0.8 0
0.3 0.7 0.1
0.4 0.7 0.1
0.3 0.8 0.1
0.4 0.8 0.1
0.3 0.8 0
0.4 0.8 0
0.3 0.9 0
0.4 0.9 0
0.3 0.8 0.1
0.4 0.8 0.1
0.3 0.9 0.1
0.4 0.9 0.1
0.3 0.9 0
0.4 0.9 0
0.3 1 0
0.4 1 0
0.3 0.9 0.1
0.4 0.9 0.1
0.3 1 0.1
0.4 1 0.1
0.4 0 0
0.5 0 0
0.4 0.1 0
0.5 0.1 0
0.4 0 0.1
0.5 0 0.1
0.4 0.1 0.1
0.5 0.1 0.1
0.4 0.1 0
0.5 0.1 0
0.4 0.2 0
0.5 0.2 0
0.4 0.1 0.1
0.5 0.1 0.1
0.4 0.2 0.1
0.5 0.2 0.1
0.4 0.2 0
0.5 0.2 0
0.4 0.3 0
0.5 0.3 0
0.4 0.2 0.1
0.5 0.2 0.1
0.4 0.3 0.1
0.5 0.3 0.1
0.4 0.3 0
0.45 0.3 0
0.4 0.35 0
0.45 0.35 0
0.4 0.3 0.05
0.45 0.3 0.05
0.4 0.35 0.05
0.45 0.35 0.05
0.4 0.3 0.05
0.45 0.3 0.05
0.4 0.35 0.05
0.45 0.35 0.05
0.4 0.3 0.1
0.45 0.3 0.1
0.4 0.35 0.1
0.45 0.35 0.1
0.45 0.3 0.05
0.5 0.3 0.05
0.45 0.35 0.05
0.5 0.35 0.05
0.45 0.3 0.1
0.5 0.3 0.1
0.45 0.35 0.1
0.5 0.35 0.1
0.45 0.3 0
0.5 0.3 0
0.45 0.35 0
0.5 0.35 0
0.45 0.3 0.05
0.5 0.3 0.05
0.45 0.35 0.05
0.5 0.35 0.05
0.45 0.35 0
0.5 0.35 0
0.45 0.4 0
0.5 0.4 0
0.45 0.35 0.05
0.5 0.35 0.05
0.45 0.4 0.05
0.5 0.4 0.05
0.45 0.35 0.05
0.5 0.35 0.05
0.45 0.4 0.05
0.5 0.4 0.05
0.45 0.35 0.1
0.5 0.35 0.1
0.45 0.4 0.1
0.5 0.4 0.1
0.4 0.35 0.05
0.45 0.35 0.05
0.4 0.4 0.05
0.45 0.4 0.05
0.4 0.35 0.1
0.45 0.35 0.1
0.4 0.4 0.1
0.45 0.4 0.1
0.4 0.35 0
0.45 0.35 0
0.4 0.4 0
0.45 0.4 0
0.4 0.35 0.05
0.45 0.35 0.05
0.4 0.4 0.05
0.45 0.4 0.05
0.4 0.4 0
0.45 0.4 0
0.4 0.45 0
0.45 0.45 0
0.4 0.4 0.05
0.45 0.4 0.05
0.4 0.45 0.05
0.45 0.45 0.05
0.4 0.4 0.05
0.45 0.4 0.05
0.4 0.45 0.05
0.45 0.45 0.05
0.4 0.4 0.1
0.45 0.4 0.1
0.4 0.45 0.1
0.45 0.45 0.1
0.45 0.4 0.05
0.5 0.4 0.05
0.45 0.45 0.05
0.5 0.45 0.05
0.45 0.4 0.1
0.5 0.4 0.1
0.45 0.45 0.1
0.5 0.45 0.1
0.45 0.4 0
0.5 0.4 0
0.45 0.45 0
0.5 0.45 0
0.45 0.4 0.05
0.5 0.4 0.05
0.45 0.45 0.05
0.5 0.45 0.05
0.45 0.45 0
0.5 0.45 0
0.45 0.5 0
0.5 0.5 0
0.45 0.45 0.05
0.5 0.45 0.05
0.45 0.5 0.05
0.5 0.5 0.05
0.45 0.45 0.05
0.5 0.45 0.05
0.45 0.5 0.05
0.5 0.5 0.05
0.45 0.45 0.1
0.5 0.45 0.1
0.45 0.5 0.1
0.5 0.5 0.1
0.4 0.45 0.05
0.45 0.45 0.05
0.4 0.5 0.05
0.45 0.5 0.05
0.4 0.45 0.1
0.45 0.45 0.1
0.4 0.5 0.1
0.45 0.5 0.1
0.4 0.45 0
0.45 0.45 0
0.4 0.5 0
0.45 0.5 0
0.4 0.45 0.05
0.45 0.45 0.05
0.4 0.5 0.05
0.45 0.5 0.05
0.4 0.5 0
0.5 0.5 0
0.4 0.6 0
0.5 0.6 0
0.4 0.5 0.1
0.5 0.5 0.1
0.4 0.6 0.1
0.5 0.6 0.1
0.4 0.6 0
0.5 0.6 0
0.4 0.7 0
0.5 0.7 0
0.4 0.6 0.1
0.5 0.6 0.1
0.4 0.7 0.1
0.5 0.7 0.1
0.4 0.7 0
0.5 0.7 0
0.4 0.8 0
0.5 0.8 0
0.4 0.7 0.1
0.5 0.7 0.1
0.4 0.8 0.1
0.5 0.8 0.1
0.4 0.8 0
0.5 0.8 0
0.4 0.9 0
0.5 0.9 0
0.4 0.8 0.1
0.5 0.8 0.1
0.4 0.9 0.1
0.5 0.9 0.1
0.4 0.9 0
0.5 0.9 0
0.4 1 0
0.5 1 0
0.4 0.9 0.1
0.5 0.9 0.1
0.4 1 0.1
0.5 1 0.1
0.5 0 0
0.6 0 0
0.5 0.1 0
0.6 0.1 0
0.5 0 0.1
0.6 0 0.1
0.5 0.1 0.1
0.6 0.1 0.1
0.5 0.1 0
0.6 0.1 0
0.5 0.2 0
0.6 0.2 0
0.5 0.1 0.1
0.6 0.1 0.1
0.5 0.2 0.1
0.6 0.2 0.1
0.5 0.2 0
0.6 0.2 0
0.5 0.3 0
0.6 0.3 0
0.5 0.2 0.1
0.6 0.2 0.1
0.5 0.3 0.1
0.6 0.3 0.1
0.5 0.3 0
0.55 0.3 0
0.5 0.35 0
0.55 0.35 0
0.5 0.3 0.05
0.55 0.3 0.05
0.5 0.35 0.05
0.55 0.35 0.05
0.5 0.3 0.05
0.55 0.3 0.05
0.5 0.35 0.05
0.55 0.35 0.05
0.5 0.3 0.1
0.55 0.3 0.1
0.5 0.35 0.1
0.55 0.35 0.1
0.55 0.3 0.05
0.6 0.3 0.05
0.55 0.35 0.05
0.6 0.35 0.05
0.55 0.3 0.1
0.6 0.3 0.1
0.55 0.35 0.1
0.6 0.35 0.1
0.55 0.3 0
0.6 0.3 0
0.55 0.35 0
0.6 0.35 0
0.55 0.3 0.05
0.6 0.3 0.05
0.55 0.35 0.05
0.6 0.35 0.05
0.55 0.35 0
0.6 0.35 0
0.55 0.4 0
0.6 0.4 0
0.55 0.35 0.05
0.6 0.35 0.05
0.55 0.4 0.05
0.6 0.4 0.05
0.55 0.35 0.05
0.6 0.35 0.05
0.55 0.4 0.05
0.6 0.4 0.05
0.55 0.35 0.1
0.6 0.35 0.1
0.55 0.4 0.1
0.6 0.4 0.1
0.5 0.35 0.05
0.55 0.35 0.05
0.5 0.4 0.05
0.55 0.4 0.05
0.5 0.35 0.1
0.55 0.35 0.1
0.5 0.4 0.1
0.55 0.4 0.1
0.5 0.35 0
0.55 0.35 0
0.5 0.4 0
0.55 0.4 0
0.5 0.35 0.05
0.55 0.35 0.05
0.5 0.4 0.05
0.55 0.4 0.05
0.5 0.4 0
0.55 0.4 0
0.5 0.45 0
0.55 0.45 0
0.5 0.4 0.05
0.55 0.4 0.05
0.5 0.45 0.05
0.55 0.45 0.05
0.5 0.4 0.05
0.55 0.4 0.05
0.5 0.45 0.05
0.55 0.45 0.05
0.5 0.4 0.1
0.55 0.4 0.1
0.5 0.45 0.1
0.55 0.45 0.1
0.55 0.4 0.05
0.6 0.4 0.05
0.55 0.45 0.05
0.6 0.45 0.05
0.55 0.4 0.1
0.6 0.4 0.1
0.55 0.45 0.1
0.6 0.45 0.1
0.55 0.4 0
0.6 0.4 0
0.55 0.45 0
0.6 0.45 0
0.55 0.4 0.05
0.6 0.4 0.05
0.55 0.45 0.05
0.6 0.45 0.05
0.55 0.45 0
0.6 0.45 0
0.55 0.5 0
0.6 0.5 0
0.55 0.45 0.05
0.6 0.45 0.05
0.55 0.5 0.05
0.6 0.5 0.05
0.55 0.45 0.05
0.6 0.45 0.05
0.55 0.5 0.05
0.6 0.5 0.05
0.55 0.45 0.1
0.6 0.45 0.1
0.55 0.5 0.1
0.6 0.5 0.1
0.5 0.45 0.05
0.55 0.45 0.05
0.5 0.5 0.05
0.55 0.5 0.05
0.5 0.45 0.1
0.55 0.45 0.1
0.5 0.5 0.1
0.55 0.5 0.1
0.5 0.45 0
0.55 0.45 0
0.5 0.5 0
0.55 0.5 0
0.5 0.45 0.05
0.55 0.45 0.05
0.5 0.5 0.05
0.55 0.5 0.05
0.5 0.5 0
0.6 0.5 0
0.5 0.6 0
0.6 0.6 0
0.5 0.5 0.1
0.6 0.5 0.1
0.5 0.6 0.1
0.6 0.6 0.1
0.5 0.6 0
0.6 0.6 0
0.5 0.7 0
0.6 0.7 0
0.5 0.6 0.1
0.6 0.6 0.1
0.5 0.7 0.1
0.6 0.7 0.1
0.5 0.7 0
0.6 0.7 0
0.5 0.8 0
0.6 0.8 0
0.5 0.7 0.1
0.6 0.7 0.1
0.5 0.8 0.1
0.6 0.8 0.1
0.5 0.8 0
0.6 0.8 0
0.5 0.9 0
0.6 0.9 0
0.5 0.8 0.1
0.6 0.8 0.1
0.5 0.9 0.1
0.6 0.9 0.1
0.5 0.9 0
0.6 0.9 0
0.5 1 0
0.6 1 0
0.5 0.9 0.1
0.6 0.9 0.1
0.5 1 0.1
0.6 1 0.1
0.6 0 0
0.7 0 0
0.6 0.1 0
0.7 0.1 0
0.6 0 0.1
0.7 0 0.1
0.6 0.1 0.1
0.7 0.1 0.1
0.6 0.1 0
0.7 0.1 0
0.6 0.2 0
0.7 0.2 0
0.6 0.1 0.1
0.7 0.1 0.1
0.6 0.2 0.1
0.7 0.2 0.1
0.6 0.2 0
0.7 0.2 0
0.6 0.3 0
0.7 0.3 0
0.6 0.2 0.1
0.7 0.2 0.1
0.6 0.3 0.1
0.7 0.3 0.1
0.6 0.3 0
0.7 0.3 0
0.6 0.4 0
0.7 0.4 0
0.6 0.3 0.1
0.7 0.3 0.1
0.6 0.4 0.1
0.7 0.4 0.1
0.6 0.4 0
0.7 0.4 0
0.6 0.5 0
0.7 0.5 0
0.6 0.4 0.1
0.7 0.4 0.1
0.6 0.5 0.1
0.7 0.5 0.1
0.6 0.5 0
0.7 0.5 0
0.6 0.6 0
0.7 0.6 0
0.6 0.5 0.1
0.7 0.5 0.1
0.6 0.6 0.1
0.7 0.6 0.1
0.6 0.6 0
0.7 0.6 0
0.6 0.7 0
0.7 0.7 0
0.6 0.6 0.1
0.7 0.6 0.1
0.6 0.7 0.1
0.7 0.7 0.1
0.6 0.7 0
0.7 0.7 0
0.6 0.8 0
0.7 0.8 0
0.6 0.7 0.1
0.7 0.7 0.1
0.6 0.8 0.1
0.7 0.8 0.1
0.6 0.8 0
0.65 0.8 0
0.6 0.85 0
0.65 0.85 0
0.6 0.8 0.05
0.65 0.8 0.05
0.6 0.85 0.05
0.65 0.85 0.05
0.6 0.8 0.05
0.65 0.8 0.05
0.6 0.85 0.05
0.65 0.85 0.05
0.6 0.8 0.1
0.65 0.8 0.1
0.6 0.85 0.1
0.65 0.85 0.1
0.65 0.8 0.05
0.7 0.8 0.05
0.65 0.85 0.05
0.7 0.85 0.05
0.65 0.8 0.1
0.7 0.8 0.1
0.65 0.85 0.1
0.7 0.85 0.1
0.65 0.8 0
0.7 0.8 0
0.65 0.85 0
0.7 0.85 0
0.65 0.8 0.05
0.7 0.8 0.05
0.65 0.85 0.05
0.7 0.85 0.05
0.65 0.85 0
0.7 0.85 0
0.65 0.9 0
0.7 0.9 0
0.65 0.85 0.05
0.7 0.85 0.05
0.65 0.9 0.05
0.7 0.9 0.05
0.65 0.85 0.05
0.7 0.85 0.05
0.65 0.9 0.05
0.7 0.9 0.05
0.65 0.85 0.1
0.7 0.85 0.1
0.65 0.9 0.1
0.7 0.9 0.1
0.6 0.85 0.05
0.65 0.85 0.05
0.6 0.9 0.05
0.65 0.9 0.05
0.6 0.85 0.1
0.65 0.85 0.1
0.6 0.9 0.1
0.65 0.9 0.1
0.6 0.85 0
0.65 0.85 0
0.6 0.9 0
0.65 0.9 0
0.6 0.85 0.05
0.65 0.85 0.05
0.6 0.9 0.05
0.65 0.9 0.05
0.6 0.9 0
0.7 0.9 0
0.6 1 0
0.7 1 0
0.6 0.9 0.1
0.7 0.9 0.1
0.6 1 0.1
0.7 1 0.1
0.7 0 0
0.8 0 0
0.7 0.1 0
0.8 0.1 0
0.7 0 0.1
0.8 0 0.1
0.7 0.1 0.1
0.8 0.1 0.1
0.7 0.1 0
[...]
<CellData Scalars="attribute">
<DataArray type="Int32" Name="attribute" format="ascii">
1
1
1
1
1
1
1
1
1
1
1
1
1
1
1
1
1
1
1
1
1
1
1
1
1
1
1
1
1
1
1
1
1
1
1
1
1
1
1
1
1
1
1
1
1
1
1
1
1
1
1
1
1
1
1
1
1
1
1
1
1
1
1
1
1
1
1
1
1
1
1
1
1
1
1
1
1
1
1
1
1
1
1
1
1
1
1
1
1
1
1
1
1
1
1
1
1
1
1
1
1
1
1
1
1
1
1
1
1
1
1
1
1
1
1
1
1
1
1
1
1
1
1
1
1
1
1
1
1
1
1
1
1
1
1
1
1
1
1
1
1
1
1
1
1
1
1
1
1
1
1
1
1
1
1
1
1
1
1
1
1
1
1
1
1
1
1
1
1
1
1
1
1
1
1
1
1
1
1
1
1
1
1
1
</DataArray>
</CellData>
<PointData >
<DataArray type="Float64" Name="concentration" NumberOfComponents="1"  format="ascii" >
0
0
1
1
0
0
0.618950027
0.618950014
1
1
1
1
0.618950027
0.618950014
0.9516003
0.951600212
1
1
1
1
0.9516003
0.951600212
0.993852405
0.993852389
1
1
1
1
0.993852405
0.993852389
0.999219147
0.999219029
1
1
1
1
0.999219147
0.999219029
0.999900795
0.999900791
1
1
1
1
0.999900795
0.999900791
0.999987398
0.999987328
1
1
1
1
0.999987398
0.999987328
0.999998388
0.999998389
1
1
1
1
0.999998388
0.999998389
0.999999795
0.99999978
1
1
1
1
0.999999795
0.99999978
0.999999972
0.999999971
1
1
1
1
0.999999972
0.999999971
0.999999993
0.999999993
0
0
1
1
0
0
0.618950014
0.618949615
1
1
1
1
0.618950014
0.618949615
0.951600212
0.951599931
1
1
1
1
0.951600212
0.951599931
0.993852389
0.993851351
1
1
1
1
0.993852389
0.993851351
0.999219029
0.999218839
1
1
1
1
0.999219029
0.999218839
0.999900791
0.999899913
1
1
1
1
0.999900791
0.999899913
0.999987328
0.999987271
1
1
1
1
0.999987328
0.999987271
0.999998389
0.999998147
1
1
1
1
0.999998389
0.999998147
0.99999978
0.999999761
1
1
1
1
0.99999978
0.999999761
0.999999971
0.999999969
1
1
1
1
0.999999971
0.999999969
0.999999993
0.999999992
0
0
1
1
0
0
0.618949615
0.618947539
1
1
1
1
0.618949615
0.618947539
0.951599931
0.951593628
1
1
1
1
0.951599931
0.951593628
0.993851351
0.993848949
1
1
1
1
0.993851351
0.993848949
0.999218839
0.999208742
1
1
1
1
0.999218839
0.999208742
0.999899913
0.999899301
1
1
1
1
0.999899913
0.999899301
0.999987271
0.999983503
1
1
1
1
0.999987271
0.999983503
0.999998147
0.999997857
1
1
1
1
0.999998147
0.999997857
0.999999761
0.999999734
1
1
1
1
0.999999761
0.999999734
0.999999969
0.999999965
1
1
1
1
0.999999969
0.999999965
0.999999992
0.999999991
0
0
1
1
0
0
0.618947539
0.618948794
1
1
1
1
0.618947539
0.618948794
0.951593628
0.951560698
1
1
1
1
0.951593628
0.951560698
0.993848949
0.993748287
1
1
1
1
0.993848949
0.993748287
0.999208742
0.999203712
1
1
1
1
0.999208742
0.999203712
0.999899301
0.999840324
1
1
1
1
0.999899301
0.999840324
0.999983503
0.999978987
1
1
1
1
0.999983503
0.999978987
0.999997857
0.999997663
1
1
1
1
0.999997857
0.999997663
0.999999734
0.999999691
1
1
1
1
0.999999734
0.999999691
0.999999965
0.999999963
1
1
1
1
0.999999965
0.999999963
0.999999991
0.99999999
0
0
1
1
0
0
0.618948794
0.618945083
1
1
1
1
0.618948794
0.618945083
0.951560698
0.95158707
1
1
1
1
0.951560698
0.95158707
0.993748287
0.993229602
1
1
1
1
0.996874144
0.996744472
0.998238
0.998300505
0.996874144
0.996744472
0.998238
0.998300505
0.993748287
0.993488945
0.996476
0.997396865
0.996744472
0.996614801
0.998300505
0.998302274
0.993488945
0.993229602
0.997396865
0.997440677
1
1
1
1
0.996744472
0.996614801
0.998300505
0.998302274
1
1
1
1
0.998300505
0.998302274
0.999262988
0.999235293
0.998300505
0.998302274
0.999262988
0.999235293
0.997396865
0.997440677
0.998924741
0.99890162
0.998238
0.998300505
0.999601856
0.999262988
0.996476
0.997396865
0.999203712
0.998924741
1
1
1
1
0.998238
0.998300505
0.999601856
0.999262988
1
1
1
1
0.999601856
0.999262988
0.999761009
0.999695301
0.999601856
0.999262988
0.999761009
0.999695301
0.999203712
0.998924741
0.999522018
0.999553436
0.999262988
0.999235293
0.999695301
0.999675594
0.998924741
0.99890162
0.999553436
0.999533274
1
1
1
1
0.999262988
0.999235293
0.999695301
0.999675594
1
1
1
1
0.999695301
0.999675594
0.99990242
0.999884679
0.999695301
0.999675594
0.99990242
0.999884679
0.999553436
0.999533274
0.999804841
0.999769357
0.999761009
0.999695301
0.999920162
0.99990242
0.999522018
0.999553436
0.999840324
0.999804841
1
1
1
1
0.999761009
0.999695301
0.999920162
0.99990242
1
1
1
1
0.999840324
0.999769357
0.999978987
0.999979675
1
1
1
1
0.999978987
0.999979675
0.999997663
0.99999728
1
1
1
1
0.999997663
0.99999728
0.999999691
0.999999698
1
1
1
1
0.999999691
0.999999698
0.999999963
0.999999958
1
1
1
1
0.999999963
0.999999958
0.99999999
0.99999999
0
0
1
1
0
0
0.618945083
0.618948785
1
1
1
1
0.618945083
0.618948785
0.95158707
0.95156063
1
1
1
1
0.95158707
0.95156063
0.993229602
0.993747257
1
1
1
1
0.996614801
0.996744215
0.998302274
0.998300281
0.996614801
0.996744215
0.998302274
0.998300281
0.993229602
0.993488429
0.997440677
0.997396519
0.996744215
0.996873628
0.998300281
0.9982375
0.993488429
0.993747257
0.997396519
0.996475001
1
1
1
1
0.996744215
0.996873628
0.998300281
0.9982375
1
1
1
1
0.998300281
0.9982375
0.999262773
0.999601373
0.998300281
0.9982375
0.999262773
0.999601373
0.997396519
0.996475001
0.998924414
0.999202745
0.998302274
0.998300281
0.999235293
0.999262773
0.997440677
0.997396519
0.99890162
0.998924414
1
1
1
1
0.998302274
0.998300281
0.999235293
0.999262773
1
1
1
1
0.999235293
0.999262773
0.999675594
0.99969507
0.999235293
0.999262773
0.999675594
0.99969507
0.99890162
0.998924414
0.999533274
0.999553079
0.999262773
0.999601373
0.99969507
0.999760494
0.998924414
0.999202745
0.999553079
0.999520988
1
1
1
1
0.999262773
0.999601373
0.99969507
0.999760494
1
1
1
1
0.99969507
0.999760494
0.999902147
0.999919615
0.99969507
0.999760494
0.999902147
0.999919615
0.999553079
0.999520988
0.999804294
0.99983923
0.999675594
0.99969507
0.999884679
0.999902147
0.999533274
0.999553079
0.999769357
0.999804294
1
1
1
1
0.999675594
0.99969507
0.999884679
0.999902147
1
1
1
1
0.999769357
0.99983923
0.999979675
0.999978136
1
1
1
1
0.999979675
0.999978136
0.99999728
0.999997585
1
1
1
1
0.99999728
0.999997585
0.999999698
0.999999668
1
1
1
1
0.999999698
0.999999668
0.999999958
0.999999955
1
1
1
1
0.999999958
0.999999955
0.99999999
0.999999986
0
0
1
1
0
0
0.618948785
0.618947527
1
1
1
1
0.618948785
0.618947527
0.95156063
0.951593494
1
1
1
1
0.95156063
0.951593494
0.993747257
0.993847864
1
1
1
1
0.993747257
0.993847864
0.999202745
0.999192545
1
1
1
1
0.999202745
0.999192545
0.99983923
0.999885991
1
1
1
1
0.99983923
0.999885991
0.999978136
0.99998236
1
1
1
1
0.999978136
0.99998236
0.999997585
0.999997551
1
1
1
1
0.999997585
0.999997551
0.999999668
0.999999623
1
1
1
1
0.999999834
0.999999823
0.999999906
0.99999991
0.999999834
0.999999823
0.999999906
0.99999991
0.999999668
0.999999645
0.999999811
0.99999986
0.999999823
0.999999811
0.99999991
0.999999909
0.999999645
0.999999623
0.99999986
0.999999861
1
1
1
1
0.999999823
0.999999811
0.99999991
0.999999909
1
1
1
1
0.99999991
0.999999909
0.999999971
0.999999964
0.99999991
0.999999909
0.999999971
0.999999964
0.99999986
0.999999861
0.999999942
0.999999928
0.999999906
0.99999991
0.999999977
0.999999971
0.999999811
0.99999986
0.999999955
0.999999942
1
1
1
1
0.999999906
0.99999991
0.999999977
0.999999971
1
1
1
1
0.999999955
0.999999928
0.999999986
0.999999988
0
0
1
1
0
0
0.618947527
0.618949602
1
1
1
1
0.618947527
0.618949602
0.951593494
0.951599796
1
1
1
1
0.951593494
0.951599796
0.993847864
0.993850267
1
1
1
1
0.993847864
0.993850267
0.999192545
0.99920266
1
1
1
1
0.999596273
0.999598801
0.999769634
0.999787366
0.999596273
0.999598801
0.999769634
0.999787366
0.999192545
0.999197603
0.999539268
0.999666048
0.999598801
0.99960133
0.999787366
0.999772319
0.999197603
0.99920266
0.999666048
0.999544637
1
1
1
1
0.999598801
0.99960133
0.999787366
0.999772319
1
1
1
1
0.999787366
0.999772319
0.999943151
0.999943307
0.999787366
0.999772319
0.999943151
0.999943307
0.999666048
0.999544637
0.999886302
0.999886614
0.999769634
0.999787366
0.999942996
0.999943151
0.999539268
0.999666048
0.999885991
0.999886302
1
1
1
1
0.999769634
0.999787366
0.999942996
0.999943151
1
1
1
1
0.999885991
0.999886614
0.99998236
0.999985206
1
1
1
1
0.99999118
0.999991892
0.999994978
0.999995775
0.99999118
0.999991892
0.999994978
0.999995775
0.99998236
0.999983783
0.999989956
0.999993461
0.999991892
0.999992603
0.999995775
0.999996147
0.999983783
0.999985206
0.999993461
0.999994143
1
1
1
1
0.999991892
0.999992603
0.999995775
0.999996147
1
1
1
1
0.999995775
0.999996147
0.99999864
0.999998505
0.999995775
0.999996147
0.99999864
0.999998505
0.999993461
0.999994143
0.99999728
0.999997009
0.999994978
0.999995775
0.999998776
0.99999864
0.999989956
0.999993461
0.999997551
0.99999728
1
1
1
1
0.999994978
0.999995775
0.999998776
0.99999864
1
1
1
1
0.999997551
0.999997009
0.999999623
0.999999673
1
1
1
1
0.999999811
0.999999824
0.999999909
0.99999991
0.999999811
0.999999824
0.999999909
0.99999991
0.999999623
0.999999648
0.999999861
0.999999861
0.999999824
0.999999837
0.99999991
0.999999906
0.999999648
0.999999673
0.999999861
0.999999812
1
1
1
1
0.999999824
0.999999837
0.99999991
0.999999906
1
1
1
1
0.99999991
0.999999906
0.99999997
0.999999975
0.99999991
0.999999906
0.99999997
0.999999975
0.999999861
0.999999812
0.99999994
0.999999951
0.999999909
0.99999991
0.999999964
0.99999997
0.999999861
0.999999861
0.999999928
0.99999994
1
1
1
1
0.999999909
0.99999991
0.999999964
0.99999997
1
1
1
1
0.999999928
0.999999951
0.999999988
0.999999985
0
0
1
1
0
0
0.618949602
0.618949998
1
1
1
1
0.618949602
0.618949998
0.951599796
0.951600135
1
1
1
1
0.951599796
0.951600135
0.993850267
0.993851343
1
1
1
1
0.993850267
0.993851343
0.99920266
0.9992181
1
1
1
1
0.99920266
0.9992181
0.999886614
0.999899564
1
1
1
1
0.999886614
0.999899564
0.999985206
0.999985379
1
1
1
1
0.999992603
0.999992646
0.999996147
0.99999629
0.999992603
0.999992646
0.999996147
0.99999629
0.999985206
0.999985293
0.999994143
0.99999436
0.999992646
0.99999269
0.99999629
0.999996373
0.999985293
0.999985379
0.99999436
0.999994484
1
1
1
1
0.999992646
0.99999269
0.99999629
0.999996373
1
1
1
1
0.99999629
0.999996373
0.999998595
0.999998684
0.99999629
0.999996373
0.999998595
0.999998684
0.99999436
0.999994484
0.999997189
0.999997369
0.999996147
0.99999629
0.999998505
0.999998595
0.999994143
0.99999436
0.999997009
0.999997189
1
1
1
1
0.999996147
0.99999629
0.999998505
0.999998595
1
1
1
1
0.999997009
0.999997369
0.999999673
0.99999964
1
1
1
1
0.999999673
0.99999964
0.999999951
0.999999956
1
1
1
1
0.999999951
0.999999956
0.999999985
0.999999982
0
0
1
1
0
0
0.618949998
0.618950017
1
1
1
1
0.618949998
0.618950017
0.951600135
0.951600168
1
1
1
1
0.951600135
0.951600168
0.993851343
0.993852279
1
1
1
1
0.993851343
0.993852279
0.9992181
0.999218863
1
1
1
1
0.9992181
0.999218863
0.999899564
0.999900435
1
1
1
1
0.999899564
0.999900435
0.999985379
0.99998629
1
1
1
1
0.99999269
0.999992917
0.999996373
0.999996455
0.99999269
0.999992917
0.999996373
0.999996455
0.999985379
0.999985835
0.999994484
0.99999461
0.999992917
0.999993145
0.999996455
0.999996501
0.999985835
0.99998629
0.99999461
0.999994684
1
1
1
1
0.999992917
0.999993145
0.999996455
0.999996501
1
1
1
1
0.999996455
0.999996501
0.999998698
0.999998711
0.999996455
0.999996501
0.999998698
0.999998711
0.99999461
0.999994684
0.999997396
0.999997423
0.999996373
0.999996455
0.999998684
0.999998698
0.999994484
0.99999461
0.999997369
0.999997396
1
1
1
1
0.999996373
0.999996455
0.999998684
0.999998698
1
1
1
1
0.999997369
0.999997423
0.99999964
0.999999632
1
1
1
1
0.99999982
0.999999818
0.999999899
0.999999904
0.99999982
0.999999818
0.999999899
0.999999904
0.99999964
0.999999636
0.999999798
0.999999853
0.999999818
0.999999816
0.999999904
0.999999905
0.999999636
0.999999632
0.999999853
0.999999857
1
1
1
1
0.999999818
0.999999816
0.999999904
0.999999905
1
1
1
1
0.999999904
0.999999905
0.999999957
0.999999956
0.999999904
0.999999905
0.999999957
0.999999956
0.999999853
0.999999857
0.999999938
0.999999937
0.999999899
0.999999904
0.999999978
0.999999957
0.999999798
0.999999853
0.999999956
0.999999938
1
1
1
1
0.999999899
0.999999904
0.999999978
0.999999957
1
1
1
1
0.999999978
0.999999957
0.999999984
0.99999998
1
1
1
1
0.999999957
0.999999956
0.99999998
0.999999978
1
1
1
1
0.99999998
0.999999978
0.999999985
0.999999984
1
1
1
1
0.999999984
0.99999998
0.999999991
0.999999985
0.999999984
0.99999998
0.999999991
0.999999985
0.999999969
0.99999997
0.999999982
0.999999979
0.99999998
0.999999978
0.999999985
0.999999984
0.99999997
0.999999969
0.999999979
0.999999978
0.999999957
0.999999956
0.99999998
0.999999978
0.999999938
0.999999937
0.99999997
0.999999969
0.999999978
0.999999957
0.999999984
0.99999998
0.999999956
0.999999938
0.999999969
0.99999997
</DataArray>
<DataArray type="Float64" Name="concentration_gradient" NumberOfComponents="3" ComponentName0="0" ComponentName1="1" ComponentName2="2" format="ascii" >
0 10 0 
0 10 0 
0 10 -3.81049973 
0 10 -3.81049986 
0 6.18950027 0 
0 6.18950014 0 
-1.20999183e-07 6.18950027 -3.81049973 
-1.20999183e-07 6.18950014 -3.81049986 
0 0 -3.81049973 
0 0 -3.81049986 
0 0 -0.483996996 
0 0 -0.483997877 
-1.20999183e-07 3.32650274 -3.81049973 
-1.20999183e-07 3.32650198 -3.81049986 
-8.8042959e-07 3.32650274 -0.483996996 
-8.8042959e-07 3.32650198 -0.483997877 
0 0 -0.483996996 
0 0 -0.483997877 
0 0 -0.0614759484 
0 0 -0.0614761139 
-8.8042959e-07 0.422521048 -0.483996996 
-8.8042959e-07 0.422521763 -0.483997877 
-1.65450486e-07 0.422521048 -0.0614759484 
-1.65450486e-07 0.422521763 -0.0614761139 
0 0 -0.0614759484 
0 0 -0.0614761139 
0 0 -0.00780852553 
0 0 -0.0078097106 
-1.65450486e-07 0.0536674229 -0.0614759484 
-1.65450486e-07 0.0536664033 -0.0614761139 
-1.18506633e-06 0.0536674229 -0.00780852553 
-1.18506633e-06 0.0536664033 -0.0078097106 
0 0 -0.00780852553 
0 0 -0.0078097106 
0 0 -0.000992054286 
0 0 -0.0009920904 
-1.18506633e-06 0.00681647125 -0.00780852553 
-1.18506633e-06 0.0068176202 -0.0078097106 
-3.61138575e-08 0.00681647125 -0.000992054286 
-3.61138575e-08 0.0068176202 -0.0009920904 
0 0 -0.000992054286 
0 0 -0.0009920904 
0 0 -0.00012602497 
0 0 -0.000126723692 
-3.61138575e-08 0.000866029316 -0.000992054286 
-3.61138575e-08 0.000865366708 -0.0009920904 
-6.9872179e-07 0.000866029316 -0.00012602497 
-6.9872179e-07 0.000865366708 -0.000126723692 
0 0 -0.00012602497 
0 0 -0.000126723692 
0 0 -1.61158488e-05 
0 0 -1.61093583e-05 
-6.9872179e-07 0.000109909121 -0.00012602497 
-6.9872179e-07 0.000110614333 -0.000126723692 
6.49055143e-09 0.000109909121 -1.61158488e-05 
6.49055143e-09 0.000110614333 -1.61093583e-05 
0 0 -1.61158488e-05 
0 0 -1.61093583e-05 
0 0 -2.04950887e-06 
0 0 -2.20309919e-06 
6.49055143e-09 1.406634e-05 -1.61158488e-05 
6.49055143e-09 1.39062591e-05 -1.61093583e-05 
-1.53590312e-07 1.406634e-05 -2.04950887e-06 
-1.53590312e-07 1.39062591e-05 -2.20309919e-06 
0 0 -2.04950887e-06 
0 0 -2.20309919e-06 
0 0 -2.84743358e-07 
0 0 -2.86712725e-07 
-1.53590312e-07 1.76476552e-06 -2.04950887e-06 
-1.53590312e-07 1.91638646e-06 -2.20309919e-06 
-1.96936689e-09 1.76476552e-06 -2.84743358e-07 
-1.96936689e-09 1.91638646e-06 -2.86712725e-07 
0 0 -2.84743358e-07 
0 0 -2.86712725e-07 
0 0 -7.16781834e-08 
0 0 -7.4847667e-08 
-1.96936689e-09 2.13065174e-07 -2.84743358e-07 
-1.96936689e-09 2.11865058e-07 -2.86712725e-07 
-3.16948356e-09 2.13065174e-07 -7.16781834e-08 
-3.16948356e-09 2.11865058e-07 -7.4847667e-08 
0 10 0 
0 10 0 
0 10 -3.81049986 
0 10 -3.81050385 
0 6.18950014 0 
0 6.18949615 0 
-3.99427104e-06 6.18950014 -3.81049986 
-3.99427104e-06 6.18949615 -3.81050385 
0 0 -3.81049986 
0 0 -3.81050385 
0 0 -0.483997877 
0 0 -0.484000693 
-3.99427104e-06 3.32650198 -3.81049986 
-3.99427104e-06 3.32650316 -3.81050385 
-2.81641652e-06 3.32650198 -0.483997877 
-2.81641652e-06 3.32650316 -0.484000693 
0 0 -0.483997877 
0 0 -0.484000693 
0 0 -0.0614761139 
0 0 -0.0614864929 
-2.81641652e-06 0.422521763 -0.483997877 
-2.81641652e-06 0.4225142 -0.484000693 
-1.03790521e-05 0.422521763 -0.0614761139 
-1.03790521e-05 0.4225142 -0.0614864929 
0 0 -0.0614761139 
0 0 -0.0614864929 
0 0 -0.0078097106 
0 0 -0.00781160688 
-1.03790521e-05 0.0536664033 -0.0614761139 
-1.03790521e-05 0.053674886 -0.0614864929 
-1.89628717e-06 0.0536664033 -0.0078097106 
-1.89628717e-06 0.053674886 -0.00781160688 
0 0 -0.0078097106 
0 0 -0.00781160688 
0 0 -0.0009920904 
0 0 -0.00100087397 
-1.89628717e-06 0.0068176202 -0.0078097106 
-1.89628717e-06 0.00681073291 -0.00781160688 
-8.78357347e-06 0.0068176202 -0.0009920904 
-8.78357347e-06 0.00681073291 -0.00100087397 
0 0 -0.0009920904 
0 0 -0.00100087397 
0 0 -0.000126723692 
0 0 -0.000127289014 
-8.78357347e-06 0.000865366708 -0.0009920904 
-8.78357347e-06 0.000873584959 -0.00100087397 
-5.6532264e-07 0.000865366708 -0.000126723692 
-5.6532264e-07 0.000873584959 -0.000127289014 
0 0 -0.000126723692 
0 0 -0.000127289014 
0 0 -1.61093583e-05 
0 0 -1.85349568e-05 
-5.6532264e-07 0.000110614333 -0.000126723692 
-5.6532264e-07 0.000108754057 -0.000127289014 
-2.4255985e-06 0.000110614333 -1.61093583e-05 
-2.4255985e-06 0.000108754057 -1.85349568e-05 
0 0 -1.61093583e-05 
0 0 -1.85349568e-05 
0 0 -2.20309919e-06 
0 0 -2.38623977e-06 
-2.4255985e-06 1.39062591e-05 -1.61093583e-05 
-2.4255985e-06 1.6148717e-05 -1.85349568e-05 
-1.83140585e-07 1.39062591e-05 -2.20309919e-06 
-1.83140585e-07 1.6148717e-05 -2.38623977e-06 
0 0 -2.20309919e-06 
0 0 -2.38623977e-06 
0 0 -2.86712725e-07 
0 0 -3.14037985e-07 
-1.83140585e-07 1.91638646e-06 -2.20309919e-06 
-1.83140585e-07 2.07220179e-06 -2.38623977e-06 
-2.73252598e-08 1.91638646e-06 -2.86712725e-07 
-2.73252598e-08 2.07220179e-06 -3.14037985e-07 
0 0 -2.86712725e-07 
0 0 -3.14037985e-07 
0 0 -7.4847667e-08 
0 0 -7.99767419e-08 
-2.73252598e-08 2.11865058e-07 -2.86712725e-07 
-2.73252598e-08 2.34061243e-07 -3.14037985e-07 
-5.12907494e-09 2.11865058e-07 -7.4847667e-08 
-5.12907494e-09 2.34061243e-07 -7.99767419e-08 
0 10 0 
0 10 0 
0 10 -3.81050385 
0 10 -3.81052461 
0 6.18949615 0 
0 6.18947539 0 
-2.07570158e-05 6.18949615 -3.81050385 
-2.07570158e-05 6.18947539 -3.81052461 
0 0 -3.81050385 
0 0 -3.81052461 
0 0 -0.484000693 
0 0 -0.484063721 
-2.07570158e-05 3.32650316 -3.81050385 
-2.07570158e-05 3.32646089 -3.81052461 
-6.30279071e-05 3.32650316 -0.484000693 
-6.30279071e-05 3.32646089 -0.484063721 
0 0 -0.484000693 
0 0 -0.484063721 
0 0 -0.0614864929 
0 0 -0.0615105121 
-6.30279071e-05 0.4225142 -0.484000693 
-6.30279071e-05 0.422553209 -0.484063721 
-2.40191988e-05 0.4225142 -0.0614864929 
-2.40191988e-05 0.422553209 -0.0615105121 
0 0 -0.0614864929 
0 0 -0.0615105121 
0 0 -0.00781160688 
0 0 -0.00791257832 
-2.40191988e-05 0.053674886 -0.0614864929 
-2.40191988e-05 0.0535979338 -0.0615105121 
-0.000100971431 0.053674886 -0.00781160688 
-0.000100971431 0.0535979338 -0.00791257832 
0 0 -0.00781160688 
0 0 -0.00791257832 
0 0 -0.00100087397 
0 0 -0.00100699381 
-0.000100971431 0.00681073291 -0.00781160688 
-0.000100971431 0.00690558451 -0.00791257832 
-6.11983167e-06 0.00681073291 -0.00100087397 
-6.11983167e-06 0.00690558451 -0.00100699381 
0 0 -0.00100087397 
0 0 -0.00100699381 
0 0 -0.000127289014 
0 0 -0.000164970971 
-6.11983167e-06 0.000873584959 -0.00100087397 
-6.11983167e-06 0.000842022834 -0.00100699381 
-3.76819565e-05 0.000873584959 -0.000127289014 
-3.76819565e-05 0.000842022834 -0.000164970971 
0 0 -0.000127289014 
0 0 -0.000164970971 
0 0 -1.85349568e-05 
0 0 -2.14306641e-05 
-3.76819565e-05 0.000108754057 -0.000127289014 
-3.76819565e-05 0.000143540307 -0.000164970971 
-2.89570734e-06 0.000108754057 -1.85349568e-05 
-2.89570734e-06 0.000143540307 -2.14306641e-05 
0 0 -1.85349568e-05 
0 0 -2.14306641e-05 
0 0 -2.38623977e-06 
0 0 -2.66154715e-06 
-2.89570734e-06 1.6148717e-05 -1.85349568e-05 
-2.89570734e-06 1.8769117e-05 -2.14306641e-05 
-2.75307378e-07 1.6148717e-05 -2.38623977e-06 
-2.75307378e-07 1.8769117e-05 -2.66154715e-06 
0 0 -2.38623977e-06 
0 0 -2.66154715e-06 
0 0 -3.14037985e-07 
0 0 -3.53101216e-07 
-2.75307378e-07 2.07220179e-06 -2.38623977e-06 
-2.75307378e-07 2.30844593e-06 -2.66154715e-06 
-3.90632315e-08 2.07220179e-06 -3.14037985e-07 
-3.90632315e-08 2.30844593e-06 -3.53101216e-07 
0 0 -3.14037985e-07 
0 0 -3.53101216e-07 
0 0 -7.99767419e-08 
0 0 -8.51137083e-08 