<VTKFile type="UnstructuredGrid" version="2.2" byte_order="LittleEndian">
<UnstructuredGrid>
<Piece NumberOfPoints="80" NumberOfCells="20">
<Points>
<DataArray type="Float64" NumberOfComponents="3" format="ascii">
0 0 0
0.5 0 0
0.154508 0.475529 0
0.654509 0.475529 0
0 0 0
0.154508 0.475529 0
-0.404508 0.293893 0
-0.25 0.769421 0
0 0 0
-0.404508 0.293893 0
-0.404508 -0.293893 0
-0.809016 0 0
0 0 0
-0.404508 -0.293893 0
0.154508 -0.475529 0
-0.25 -0.76942 0
0 0 0
0.154508 -0.475529 0
0.5 0 0
0.654509 -0.475529 0
0.5 0 0
1 0 0
0.654509 0.475529 0
1.15451 0.475529 0
0.654509 0.475529 0
1.15451 0.475529 0
0.809019 0.951057 0
1.30902 0.951057 0
0.154508 0.475529 0
0.654509 0.475529 0
0.309017 0.951057 0
0.809019 0.951057 0
0.154508 0.475529 0
0.309017 0.951057 0
-0.25 0.769421 0
-0.0954915 1.24495 0
-0.25 0.769421 0
-0.0954915 1.24495 0
-0.654508 1.06331 0
-0.5 1.53884 0
-0.404508 0.293893 0
-0.25 0.769421 0
-0.809017 0.587785 0
-0.654508 1.06331 0
-0.404508 0.293893 0
-0.809017 0.587785 0
-0.809016 0 0
-1.21352 0.293893 0
-0.809016 0 0
-1.21352 0.293893 0
-1.21352 -0.293892 0
-1.61803 0 0
-0.404508 -0.293893 0
-0.809016 0 0
-0.809017 -0.587785 0
-1.21352 -0.293892 0
-0.404508 -0.293893 0
-0.809017 -0.587785 0
-0.25 -0.76942 0
-0.654508 -1.06331 0
-0.25 -0.76942 0
-0.654508 -1.06331 0
-0.0954915 -1.24495 0
-0.5 -1.53884 0
0.154508 -0.475529 0
-0.25 -0.76942 0
0.309017 -0.951057 0
-0.0954915 -1.24495 0
0.154508 -0.475529 0
0.309017 -0.951057 0
0.654509 -0.475529 0
0.809019 -0.951057 0
0.654509 -0.475529 0
0.809019 -0.951057 0
1.15451 -0.475529 0
1.30902 -0.951057 0
0.5 0 0
0.654509 -0.475529 0
1 0 0
1.15451 -0.475529 0
</DataArray>
</Points>
<Cells>
<DataArray type="Int32" Name="connectivity" format="ascii">
0 1 3 2 
4 5 7 6 
8 9 11 10 
12 13 15 14 
16 17 19 18 
20 21 23 22 
24 25 27 26 
28 29 31 30 
32 33 35 34 
36 37 39 38 
40 41 43 42 
44 45 47 46 
48 49 51 50 
52 53 55 54 
56 57 59 58 
60 61 63 62 
64 65 67 66 
68 69 71 70 
72 73 75 74 
76 77 79 78 
</DataArray>
<DataArray type="Int32" Name="offsets" format="ascii">
4
8
12
16
20
24
28
32
36
40
44
48
52
56
60
64
68
72
76
80
</DataArray>
<DataArray type="UInt8" Name="types" format="ascii">
9
9
9
9
9
9
9
9
9
9
9
9
9
9
9
9
9
9
9
9
</DataArray>
</Cells>
<CellData Scalars="attribute">
<DataArray type="Int32" Name="attribute" format="ascii">
1
1
1
1
1
1
1
1
1
1
1
1
1
1
1
1
1
1
1
1
</DataArray>
</CellData>
<PointData >
<DataArray type="Float64" Name="u" NumberOfComponents="1"  format="ascii" >
1.39410819
5.97656744
5.97657179
7.94726313
1.39410819
5.97657179
5.97656967
7.94726009
1.39410819
5.97656967
5.97657
7.94725754
1.39410819
5.97657
5.97657155
7.94725543
1.39410819
5.97657155
5.97656744
7.94726311
5.97656744
10
7.94726313
10
7.94726313
10
10
10
5.97657179
7.94726313
10
10
5.97657179
10
7.94726009
10
7.94726009
10
10
10
5.97656967
7.94726009
10
10
5.97656967
10
7.94725754
10
7.94725754
10
10
10
5.97657
7.94725754
10
10
5.97657
10
7.94725543
10
7.94725543
10
10
10
5.97657155
7.94725543
10
10
5.97657155
10
7.94726311
10
7.94726311
10
10
10
5.97656744
7.94726311
10
10
</DataArray>
<DataArray type="Float64" Name="cylindrical_inv_r_coef" NumberOfComponents="1" format="ascii" >
1e+100
2
1.99999779
1.23606669
1e+100
1.99999779
2.00000073
1.23606781
1e+100
2.00000073
2.00000073
1.2360695
1e+100
2.00000073
1.99999779
1.23606926
1e+100
1.99999779
2
1.23606669
2
1
1.23606669
0.80089207
1.23606669
0.80089207
0.800892073
0.618032951
1.99999779
1.23606669
0.999999538
0.800892073
1.99999779
0.999999538
1.23606781
0.800892595
1.23606781
0.800892595
0.800895228
0.618034631
2.00000073
1.23606781
1.00000014
0.800895228
2.00000073
1.00000014
1.2360695
0.80089651
1.2360695
0.80089651
0.800896661
0.618035512
2.00000073
1.2360695
1.00000014
0.800896661
2.00000073
1.00000014
1.23606926
0.800895228
1.23606926
0.800895228
0.800892595
0.618034631
1.99999779
1.23606926
0.999999538
0.800892595
1.99999779
0.999999538
1.23606669
0.800892073
1.23606669
0.800892073
0.80089207
0.618032951
2
1.23606669
1
0.80089207
</DataArray>
<DataArray type="Float64" Name="cylindrical_two_pi_r_coef" NumberOfComponents="1" format="ascii" >
0
3.14159265
3.14159612
5.08320899
0
3.14159612
3.14159151
5.08320438
0
3.14159151
3.14159151
5.08319744
0
3.14159151
3.14159612
5.08319841
0
3.14159612
3.14159265
5.08320899
3.14159265
6.28318531
5.08320899
7.84523351
5.08320899
7.84523351
7.84523348
10.1664244
3.14159612
5.08320899
6.28318821
7.84523348
3.14159612
6.28318821
5.08320438
7.84522837
5.08320438
7.84522837
7.84520258
10.1663968
3.14159151
5.08320438
6.2831844
7.84520258
3.14159151
6.2831844
5.08319744
7.84519002
5.08319744
7.84519002
7.84518854
10.1663823
3.14159151
5.08319744
6.2831844
7.84518854
3.14159151
6.2831844
5.08319841
7.84520258
5.08319841
7.84520258
7.84522837
10.1663968
3.14159612
5.08319841
6.28318821
7.84522837
3.14159612
6.28318821
5.08320899
7.84523348
5.08320899
7.84523348
7.84523351
10.1664244
3.14159265
5.08320899
6.28318531
7.84523351
</DataArray>
</PointData>
</Piece>
</UnstructuredGrid>
</VTKFile>
