<?xml version="1.0"?>
<VTKFile type="UnstructuredGrid" version="2.2" byte_order="LittleEndian" header_type="UInt32" compressor="vtkZLibDataCompressor">
  <UnstructuredGrid>
    <Piece NumberOfPoints="1759" NumberOfCells="132">
      <PointData RationalWeights="RationalWeights">
        <DataArray type="Float64" Name="RationalWeights" format="ascii" RangeMin="1" RangeMax="1">
          1 1 1 1 1 1
          1 1 1 1 1 1
          1 1 1 1 1 1
          1 1 1 1 1 1
          1 1 1 1 1 1
          1 1 1 1 1 1
          1 1 1 1 1 1
          1 1 1 1 1 1
          1 1 1 1 1 1
          1 1 1 1 1 1
          1 1 1 1 1 1
          1 1 1 1 1 1
          1 1 1 1 1 1
          1 1 1 1 1 1
          1 1 1 1 1 1
          1 1 1 1 1 1
          1 1 1 1 1 1
          1 1 1 1 1 1
          1 1 1 1 1 1
          1 1 1 1 1 1
          1 1 1 1 1 1
          1 1 1 1 1 1
          1 1 1 1 1 1
          1 1 1 1 1 1
          1 1 1 1 1 1
          1 1 1 1 1 1
          1 1 1 1 1 1
          1 1 1 1 1 1
          1 1 1 1 1 1
          1 1 1 1 1 1
          1 1 1 1 1 1
          1 1 1 1 1 1
          1 1 1 1 1 1
          1 1 1 1 1 1
          1 1 1 1 1 1
          1 1 1 1 1 1
          1 1 1 1 1 1
          1 1 1 1 1 1
          1 1 1 1 1 1
          1 1 1 1 1 1
          1 1 1 1 1 1
          1 1 1 1 1 1
          1 1 1 1 1 1
          1 1 1 1 1 1
          1 1 1 1 1 1
          1 1 1 1 1 1
          1 1 1 1 1 1
          1 1 1 1 1 1
          1 1 1 1 1 1
          1 1 1 1 1 1
          1 1 1 1 1 1
          1 1 1 1 1 1
          1 1 1 1 1 1
          1 1 1 1 1 1
          1 1 1 1 1 1
          1 1 1 1 1 1
          1 1 1 1 1 1
          1 1 1 1 1 1
          1 1 1 1 1 1
          1 1 1 1 1 1
          1 1 1 1 1 1
          1 1 1 1 1 1
          1 1 1 1 1 1
          1 1 1 1 1 1
          1 1 1 1 1 1
          1 1 1 1 1 1
          1 1 1 1 1 1
          1 1 1 1 1 1
          1 1 1 1 1 1
          1 1 1 1 1 1
          1 1 1 1 1 1
          1 1 1 1 1 1
          1 1 1 1 1 1
          1 1 1 1 1 1
          1 1 1 1 1 1
          1 1 1 1 1 1
          1 1 1 1 1 1
          1 1 1 1 1 1
          1 1 1 1 1 1
          1 1 1 1 1 1
          1 1 1 1 1 1
          1 1 1 1 1 1
          1 1 1 1 1 1
          1 1 1 1 1 1
          1 1 1 1 1 1
          1 1 1 1 1 1
          1 1 1 1 1 1
          1 1 1 1 1 1
          1 1 1 1 1 1
          1 1 1 1 1 1
          1 1 1 1 1 1
          1 1 1 1 1 1
          1 1 1 1 1 1
          1 1 1 1 1 1
          1 1 1 1 1 1
          1 1 1 1 1 1
          1 1 1 1 1 1
          1 1 1 1 1 1
          1 1 1 1 1 1
          1 1 1 1 1 1
          1 1 1 1 1 1
          1 1 1 1 1 1
          1 1 1 1 1 1
          1 1 1 1 1 1
          1 1 1 1 1 1
          1 1 1 1 1 1
          1 1 1 1 1 1
          1 1 1 1 1 1
          1 1 1 1 1 1
          1 1 1 1 1 1
          1 1 1 1 1 1
          1 1 1 1 1 1
          1 1 1 1 1 1
          1 1 1 1 1 1
          1 1 1 1 1 1
          1 1 1 1 1 1
          1 1 1 1 1 1
          1 1 1 1 1 1
          1 1 1 1 1 1
          1 1 1 1 1 1
          1 1 1 1 1 1
          1 1 1 1 1 1
          1 1 1 1 1 1
          1 1 1 1 1 1
          1 1 1 1 1 1
          1 1 1 1 1 1
          1 1 1 1 1 1
          1 1 1 1 1 1
          1 1 1 1 1 1
          1 1 1 1 1 1
          1 1 1 1 1 1
          1 1 1 1 1 1
          1 1 1 1 1 1
          1 1 1 1 1 1
          1 1 1 1 1 1
          1 1 1 1 1 1
          1 1 1 1 1 1
          1 1 1 1 1 1
          1 1 1 1 1 1
          1 1 1 1 1 1
          1 1 1 1 1 1
          1 1 1 1 1 1
          1 1 1 1 1 1
          1 1 1 1 1 1
          1 1 1 1 1 1
          1 1 1 1 1 1
          1 1 1 1 1 1
          1 1 1 1 1 1
          1 1 1 1 1 1
          1 1 1 1 1 1
          1 1 1 1 1 1
          1 1 1 1 1 1
          1 1 1 1 1 1
          1 1 1 1 1 1
          1 1 1 1 1 1
          1 1 1 1 1 1
          1 1 1 1 1 1
          1 1 1 1 1 1
          1 1 1 1 1 1
          1 1 1 1 1 1
          1 1 1 1 1 1
          1 1 1 1 1 1
          1 1 1 1 1 1
          1 1 1 1 1 1
          1 1 1 1 1 1
          1 1 1 1 1 1
          1 1 1 1 1 1
          1 1 1 1 1 1
          1 1 1 1 1 1
          1 1 1 1 1 1
          1 1 1 1 1 1
          1 1 1 1 1 1
          1 1 1 1 1 1
          1 1 1 1 1 1
          1 1 1 1 1 1
          1 1 1 1 1 1
          1 1 1 1 1 1
          1 1 1 1 1 1
          1 1 1 1 1 1
          1 1 1 1 1 1
          1 1 1 1 1 1
          1 1 1 1 1 1
          1 1 1 1 1 1
          1 1 1 1 1 1
          1 1 1 1 1 1
          1 1 1 1 1 1
          1 1 1 1 1 1
          1 1 1 1 1 1
          1 1 1 1 1 1
          1 1 1 1 1 1
          1 1 1 1 1 1
          1 1 1 1 1 1
          1 1 1 1 1 1
          1 1 1 1 1 1
          1 1 1 1 1 1
          1 1 1 1 1 1
          1 1 1 1 1 1
          1 1 1 1 1 1
          1 1 1 1 1 1
          1 1 1 1 1 1
          1 1 1 1 1 1
          1 1 1 1 1 1
          1 1 1 1 1 1
          1 1 1 1 1 1
          1 1 1 1 1 1
          1 1 1 1 1 1
          1 1 1 1 1 1
          1 1 1 1 1 1
          1 1 1 1 1 1
          1 1 1 1 1 1
          1 1 1 1 1 1
          1 1 1 1 1 1
          1 1 1 1 1 1
          1 1 1 1 1 1
          1 1 1 1 1 1
          1 1 1 1 1 1
          1 1 1 1 1 1
          1 1 1 1 1 1
          1 1 1 1 1 1
          1 1 1 1 1 1
          1 1 1 1 1 1
          1 1 1 1 1 1
          1 1 1 1 1 1
          1 1 1 1 1 1
          1 1 1 1 1 1
          1 1 1 1 1 1
          1 1 1 1 1 1
          1 1 1 1 1 1
          1 1 1 1 1 1
          1 1 1 1 1 1
          1 1 1 1 1 1
          1 1 1 1 1 1
          1 1 1 1 1 1
          1 1 1 1 1 1
          1 1 1 1 1 1
          1 1 1 1 1 1
          1 1 1 1 1 1
          1 1 1 1 1 1
          1 1 1 1 1 1
          1 1 1 1 1 1
          1 1 1 1 1 1
          1 1 1 1 1 1
          1 1 1 1 1 1
          1 1 1 1 1 1
          1 1 1 1 1 1
          1 1 1 1 1 1
          1 1 1 1 1 1
          1 1 1 1 1 1
          1 1 1 1 1 1
          1 1 1 1 1 1
          1 1 1 1 1 1
          1 1 1 1 1 1
          1 1 1 1 1 1
          1 1 1 1 1 1
          1 1 1 1 1 1
          1 1 1 1 1 1
          1 1 1 1 1 1
          1 1 1 1 1 1
          1 1 1 1 1 1
          1 1 1 1 1 1
          1 1 1 1 1 1
          1 1 1 1 1 1
          1 1 1 1 1 1
          1 1 1 1 1 1
          1 1 1 1 1 1
          1 1 1 1 1 1
          1 1 1 1 1 1
          1 1 1 1 1 1
          1 1 1 1 1 1
          1 1 1 1 1 1
          1 1 1 1 1 1
          1 1 1 1 1 1
          1 1 1 1 1 1
          1 1 1 1 1 1
          1 1 1 1 1 1
          1 1 1 1 1 1
          1 1 1 1 1 1
          1 1 1 1 1 1
          1 1 1 1 1 1
          1 1 1 1 1 1
          1 1 1 1 1 1
          1 1 1 1 1 1
          1 1 1 1 1 1
          1 1 1 1 1 1
          1 1 1 1 1 1
          1 1 1 1 1 1
          1 1 1 1 1 1
          1 1 1 1 1 1
          1 1 1 1 1 1
          1 1 1 1 1 1
          1 1 1 1 1 1
          1 1 1 1 1 1
          1 1 1 1 1 1
          1
        </DataArray>
        <DataArray type="Float64" Name="von_mises" format="ascii" RangeMin="-5534.891795464777" RangeMax="152708.76861713384">
          20401.811016332224 110354.6418020479 110354.64180208366 20401.81101634625 14892.817421300433 103944.93427210531
          103944.93427213874 14892.817421289978 71241.79018963079 107806.0548391378 71241.7901896594 19650.793477607873
          18120.200950629984 101034.48482237516 101034.48482241119 18120.20095063047 58320.42118882749 102116.55795350473
          58320.421188844804 14137.070617798257 68693.20322671712 61317.08100293067 98712.65650825163 61317.081002953746
          16031.25737939666 56492.04487021886 58995.25268880066 21662.0806805606 124064.64587129423 124064.64587132438
          21662.080680591036 79278.79672633656 121183.39686030385 79278.79672636907 20334.565608861067 21969.28941944953
          111497.57209186579 111497.57209189679 21969.289419469973 76397.54771534738 69434.86293797469 108722.22648016686
          69434.86293800434 19195.621805785646 66659.51732627509 20771.321454417106 135463.58071221254 135463.58071223623
          20771.321454454624 85469.48706552669 132407.85508782638 85469.48706555876 19290.353467356366 21865.90786640525
          123203.51778166644 123203.51778169307 21865.90786644035 82413.76144114468 75659.70047619486 120216.36537138329
          75659.70047622755 18737.558925470425 72672.54806591474 19588.74135223004 144284.46605439432 144284.46605441108
          19588.741352265806 90618.15063925798 141112.7335913119 90618.15063928447 18177.59803270656 20908.974452469356
          132652.0528534427 132652.05285346188 20908.974452505332 87446.41817618045 80813.47488556297 129527.75401495268
          80813.47488559286 17622.34312395226 77689.1760470783 18719.22217463191 149992.85366969946 149992.85366970993
          18719.222174655406 93485.07285952166 146748.36604928484 93485.07285953793 17071.601931600886 19971.723566533183
          139564.95807134535 139564.95807135716 19971.723566562603 90240.58523910996 84562.61740163008 136345.7919836693
          84562.61740165057 16576.800999946143 81343.45131395837 18770.17396870845 152708.76861712977 152708.76861713384
          18770.173968714458 95797.2627725801 149432.2885594921 95797.26277258401 17374.61787415226 19233.50344260995
          144040.94726668985 144040.94726669753 19233.50344262474 92520.78271494235 87321.44111131135 140771.13811353594
          87321.44111132188 15871.71762148182 84051.63195815888 5675.087326649449 4516.676041306879 4516.676041307564
          5675.087326651145 13936.948851614648 9411.68828881797 9411.688288815429 13936.948851608022 4590.1981365594465
          4606.272383496951 4590.198136560525 5739.8456773126745 8479.909429123894 6618.636214023791 6618.636214024096
          8479.909429122219 9671.886676329625 9903.501529640831 9671.886676325208 13318.134169686426 4526.202724297611
          6731.095852720275 6657.068387561114 6731.09585271906 8736.710837146604 9482.70410528895 6675.030988760459
          3104.550281247318 2341.7049148012106 2341.704914798145 3104.550281244103 2559.7336847141787 2320.7635620361616
          2559.7336847114766 3077.4405301844245 4143.11539362349 3360.2427355835684 3360.242735580913 4143.115393621915
          2519.103074471915 3462.780022876714 3262.991532195564 3462.78002287465 4126.537395190255 3401.6130914714963
          1161.9860662111112 2020.4461182739703 2020.44611827904 1161.9860662162152 1652.9599354920313 1967.6219211165553
          1652.9599354954883 1156.0490808464074 1890.6660486588262 1991.8212640104553 1991.821264016623 1890.666048663343
          1627.154518537124 1960.0570449505135 1967.0152996828024 1960.0570449562088 1871.201489202911 1947.7493947817575
          7126.640322961502 5586.87307798383 9888.244554102741 11034.920765837536 5449.072466120461 4802.80827684528
          5909.211124698584 7748.167387626789 7619.37872461083 9511.400094253084 9277.17882516287 10966.090158446665
          4847.464895765996 7060.102196519606 6782.39813983352 7217.652771642743 8986.015589057366 6606.23821388422
          3610.9475811110015 2524.841942514773 2799.4064235148444 2381.244052594775 3277.034742944868 4611.151059445434
          3711.089775553566 2637.38530679052 3813.9470720130844 3493.348876566512 4234.86010892127 3578.0040324522724
          1211.3484069669098 2035.5774281241002 1678.3610912102718 2020.3667475833315 1151.659718571122 2083.751965113166
          2097.0537321512907 1644.5060976346078 2090.0798250030707 2022.7833560505228 1958.9652759136206 1997.1651358674078
          2035.5774281287481 1211.3484069672031 2524.8419425192237 3610.9475811080497 1678.3610912057463 1151.659718570551
          2020.3667475855975 2097.0537321624124 2083.751965115939 2799.4064235166124 3277.0347429385956 2381.2440525928355
          1644.5060976298462 2090.079825007299 1958.9652759138871 2022.7833560566542 2637.3853067863656 1997.1651358687914
          5586.873077979531 7126.640322960757 3711.0897755536694 4611.151059445707 5449.072466115358 5909.211124700263
          4802.808276842055 3813.9470720135005 4234.860108919635 3493.3488765648094 4847.4648957624395 3578.004032449674
          11034.92076583006 9888.244554090263 7619.378724609611 7748.167387620231 9511.400094242952 10966.090158436184
          9277.178825155737 7060.102196513031 7217.652771639685 6782.398139831013 8986.015589048777 6606.238213878513
          6844.135969198895 6844.135969196488 18073.93684982658 18073.93684982775 4873.755060070078 4873.755060068657
          6752.287844863945 10990.929452593105 10990.929452590703 13453.430323273467 13453.430323272127 18602.520335362588
          4969.230989955009 7753.486581749601 7753.4865817477785 11585.94046355973 12916.596129360576 8337.175086177713
          1222.775318750759 1222.7753187509165 1764.65232530585 1764.6523253024404 1187.8082152259778 3197.7799624398795
          3197.779962439752 1741.0851678132885 2976.376277175345 2976.3762771723996 3329.2433841684738 3019.6667951886284
          35.86443701607937 35.864437015576044 395.343074940711 395.34307494379834 -7.959643927504089 287.33691523167187
          287.33691523253236 367.0243145553774 928.349759905982 928.3497599074753 285.0139728967266 907.7653443624864
          4918.090061576451 -25.159216486836613 5070.661233316061 5212.658139709698 1890.003375972245 1509.8323774311077
          5819.094497554176 4210.091243904958 2688.5457732426403 4924.384286073322 5341.754710684268 3710.5953025558624
          1316.8754757407112 2179.129267247642 1161.2708739210573 2451.0484594059485 1857.6362999360072 2913.7071864579484
          2548.5012470938805 2713.215219845035 -5.673042825892026 405.9642279073861 -4.887159640673531 346.5709088752549
          372.9181344094875 1073.5091801250119 276.2204860129569 969.3267805795967 -5.673042829948912 1316.8754757448203
          405.9642279108149 -4.887159646741537 346.570908876955 2179.129267244316 1161.2708739238715 372.91813441009094
          1073.509180128282 276.22048601197156 1857.6362999314388 969.3267805793671 4918.09006157422 2451.048459410677
          5070.661233314798 5212.658139708504 2913.7071864561326 2548.5012470971765 4210.0912439056265 2713.215219842707
          -25.15921648032713 1890.0033759696717 1509.8323774332537 5819.094497559459 2688.545773240135 4924.384286072988
          5341.754710686056 3710.595302556467 16503.444065799045 6984.423297833457 6984.423297831628 16503.44406577667
          23384.415897136234 8800.226612189073 8800.226612184928 23384.415897110055 10049.004531675926 7055.648724017807
          10049.004531669347 16051.278663400226 17141.826702225615 6473.549421596574 6473.549421594425 17141.826702200113
          14294.29380943649 8683.132156031206 14294.293809423898 24211.57220877379 10585.629019852933 10097.053186863757
          6629.067205468858 10097.053186854246 16562.13007245288 15125.623445154331 10870.10144029862 4589.292129356471
          4589.292129354625 1190.2873723569237 1190.2873723566584 5139.523552201928 4588.511488731153 5139.523552199604
          2541.827366173923 2541.827366172906 3869.6781069360513 1182.809586869809 3869.678106934698 5181.767451417293
          4065.8115742988075 2526.9299041332965 4065.8115742969703 4073.915723810236 4159.654673643101 2080.881449417824
          2080.881449417271 157.7924256950306 157.79242569482733 2991.770157588424 2077.962733806141 2991.7701575873907
          633.7720002187032 633.7720002183255 292.0351336011861 98.20992385542866 292.0351336010266 2961.6039204320714
          1365.1735290605473 613.7782564441579 1365.1735290599295 290.58002962888895 1341.0015732188288 12484.439971288606
          8125.538081251797 16.515621129569354 6104.219031334998 8969.91727167226 6948.819113891971 13214.01243422387
          1845.026378195134 6441.457425102858 2282.1644765950864 6609.846614875365 7589.628876038541 8258.22378820893
          3400.599305461882 5478.821096448088 6789.442598526209 6332.748641925444 4822.486436214342 5032.579218459313
          1341.3967760984635 5403.686529819122 4715.407859133977 3012.316213660016 2920.740728183551 1107.0964244930215
          5092.310235661827 3842.93029270067 2622.0359784589173 3031.059422421276 3645.4181971260177 1956.8815598420892
          97.90145091548783 3025.351812922191 1986.677448003682 542.5502221317134 376.8536013659798 94.70029096998007
          2989.980689401259 1480.9668034523722 535.22008480727 272.234021214555 1372.2182459220116 1956.881559840312
          5032.579218454073 97.90145091573729 1341.3967760966952 3025.351812918828 4715.407859130466 1986.6774480026959
          542.5502221311996 3012.3162136565616 376.8536013655191 1107.09642449236 94.70029096990928 2989.9806893992163
          1480.96680345058 2622.0359784569337 535.2200848069048 272.2340212143656 1372.2182459209598 8125.538081243047
          6104.219031326008 5403.686529813388 6948.81911388783 6441.45742509378 2920.7407281795813 6609.846614869113
          5092.310235658055 3842.9302926957816 5478.821096443551 3031.0594224190145 3645.418197123096 12484.4399712729
          16.5156211312501 8969.917271664595 13214.012434206617 1845.0263781925373 2282.164476592577 7589.6288760281295
          8258.223788202653 3400.599305457329 6789.442598514867 6332.748641918592 4822.486436208794 3214.3728306769854
          3214.3728306750468 5662.006053926629 5662.006053925117 3831.742547252463 3241.6311313838273 3831.742547250594
          3580.84044006399 3580.8404400623704 4099.495265165018 5634.730316736485 4099.495265163987 3825.8338246787553
          3305.520991515533 3607.779827888304 3305.5209915142286 4055.4136164813904 3294.54129479529 1796.0665163965473
          1796.0665163936876 4078.650163030182 2269.7067813612475 4078.6501630273924 2868.041793461519 2868.041793459079
          4161.150555993212 3863.9807170527583 2918.8878975970442 3863.980717050499 3897.819331562543 12128.60768813601
          12128.607688149072 10353.286092970853 12376.51954086966 10353.286092968377 2089.320519814043 2089.320519813522
          10355.678742188902 5261.609165487558 2336.159213381358 5261.609165484599 5583.413303233521 3537.7878900768874
          5982.754893051317 4071.7188220388125 3333.099482328745 3905.205360492245 4214.873643180463 5831.629411475038
          3925.333318237782 3445.6286238856164 3725.164275756833 4174.836347905606 3376.6757254516265 1840.741552151822
          3937.6708241452857 1341.4096116406888 2965.456531991436 3726.7360069548486 3967.3677020229393 2837.0115858782738
          3844.440377502578 16622.504787261314 12055.079325005723 13521.38081818794 3708.6743416002855 10472.76689123219
          5663.444292996946 2349.54402840188 4875.5906048471315 16622.50478728028 1840.7415521435842 12055.079325007664
          13521.38081820863 3708.674341602688 3937.67082413779 1341.409611635027 10472.766891235182 5663.444292995112
          2349.5440284033007 3726.736006950077 4875.590604845021 3537.7878900716837 2965.4565319844137 4071.7188220336657
          3333.099482325327 3967.367702016845 2837.011585873769 3925.333318234341 3844.4403774985926 5982.754893048587
          3905.2053604888474 4214.873643177963 5831.629411472773 3445.628623882119 3725.164275754368 4174.83634790382
          3376.6757254493114 100164.50017342388 100164.50017345417 77553.78236980201 77553.78236982487 41098.011143720505
          101155.67904037089 41098.01114374509 92360.17305297389 92360.17305300228 35682.61595704576 78491.37166597508
          35682.61595707113 39719.94893796013 40346.56755376178 93218.65913447876 40346.56755378829 34860.791335645255
          39089.84067986505 114515.90325886615 114515.90325889616 46091.77595231898 115598.68618550495 46091.775952340286
          111550.02319691425 111550.0231969457 44731.858311836666 46925.96548497092 112649.73791277457 46925.96548499742
          45696.89200270747 126872.10672051081 126872.1067205386 51136.58051578378 127998.24691704477 51136.580515800924
          125060.40366908876 125060.40366911967 49798.80106570963 52804.638089336986 126422.02486100285 52804.6380893576
          51716.99843985965 135842.58034113253 135842.58034115468 54632.40720592882 136936.90438156348 54632.40720594138
          136199.87898568477 136199.87898571207 53292.37574370616 57615.738793953045 137648.41898683386 57615.738793970566
          56626.777187781074 144062.67692689883 144062.6769269132 58272.83894792658 145053.3270602782 58272.83894793579
          144718.27831735543 144718.27831737557 56932.62001803024 61385.10961385636 146181.77876535748 61385.10961386947
          60464.36525197199 145107.96850279297 145107.96850279928 58392.498706124155 146109.7989171912 58392.49870612974
          149417.55708020454 149417.55708021607 57132.174098423944 62938.9891514958 150759.08248118765 62938.989151504225
          62019.4793107295 94503.06156520435 -764.1294929236903 77380.86176297186 2004.2587491881568 94655.08490663921
          30081.249166969814 7112.4582897467335 89484.12131178426 2814.8167427411217 75313.49051143404 30600.93694289563
          6605.059822550981 34095.554729022464 88508.02951982795 32013.790079731232 9410.663639029517 31867.651853808133
          34823.66763189728 106325.61120191209 -1085.9472008844127 107398.26868954845 32637.03452072824 7693.860228505524
          104691.2732916414 3227.8634571706098 37563.26697924139 105189.45244974276 34518.813583596435 11603.232809498386
          38955.587838811 116879.34093717764 -2700.5742524365432 118689.72602323591 36351.994144166136 6365.551068508155
          115796.2374885649 2158.68897079559 41790.24934766763 117166.65426443402 38452.62306091863 11066.215435945454
          43591.59468142813 124793.08040161093 -4155.5069937727285 127064.92079306958 39297.449457620576 4836.14670912016
          125325.45766755579 983.315393035386 44929.19650479635 127373.39862980168 42204.44830264839 10005.627135773368
          47739.57465514033 131553.99740042447 -5139.211274335294 134533.81170137896 41899.450023969235 4036.181487376518
          132628.92626213052 -13.960679953012459 47977.0535553024 135195.3566458164 45214.7465261389 9017.725546109283
          51013.80483101302 132931.1608948108 -4634.086364114768 135697.70232811972 42605.888484888404 4004.412704547676
          136583.63375948553 -656.934146307316 48308.40873587408 139517.92734809578 46440.19999338823 8203.260521441207
          52337.44412156764 -4634.086364091461 132931.1608947925 -5139.211274287647 131553.99740038917 42605.888484878866
          135697.70232810656 4004.412704562904 -656.9341462715502 136583.6337594577 41899.45002394717 134533.81170135568
          4036.1814874153883 48308.40873586308 46440.19999337138 139517.92734807628 8203.260521467517 47977.05355528195
          52337.444121550194 -4155.506993702265 124793.08040155657 -13.960679896295915 132628.92626208602 39297.449457590104
          127064.92079303457 4836.146709178857 45214.74652610939 135195.3566457859 9017.725546156049 44929.19650476967
          51013.80483098549 -2700.574252359081 116879.34093710914 983.3153931079123 125325.45766748942 36351.99414412812
          118689.72602318911 6365.551068567849 42204.44830261004 127373.39862975666 10005.62713582892 41790.24934763157
          47739.574655104174 -1085.9472008080916 106325.61120183533 2158.688970868266 115796.23748848976 32637.0345206872
          107398.26868949497 7693.8602285604775 38452.623060873804 117166.65426438014 11066.215435998813 37563.26697920131
          43591.59468138427 -764.1294928705113 94503.06156512146 3227.863457234256 104691.27329155535 30081.249166925798
          94655.08490658281 7112.458289782095 34518.81358354718 105189.4524496845 11603.232809541081 34095.55472898277
          38955.58783876517 2004.2587491735521 77380.86176290584 2814.816742763379 89484.12131170256 30600.936942843742
          75313.4905113914 6605.059822536488 32013.790079681232 88508.02951977328 9410.663639038952 31867.651853767988
          34823.66763185437 47929.517938006415 16286.833933488751 16286.833933448826 47929.51793797891 27717.980195206415
          15846.121105583607 27717.980195166158 45456.22082905487 38901.51981306265 16745.701362434036 16745.70136240096
          38901.51981302582 25244.6830862485 24416.842858501313 15397.474427718582 24416.842858462576 35413.7900366145
          20929.11308205221 61755.78918345635 15367.558071596874 15367.558071550671 61755.78918344454 32186.479804109793
          15441.967938128413 32186.4798040712 60376.08675807417 54178.67940712441 15402.461393400406 15402.461393354917
          54178.679407108895 30806.777378714225 28891.013933578244 15367.174551104843 28891.013933539136 52719.81496567081
          27432.149492112854 76104.66863324623 14688.662964342351 14688.662964297628 76104.66863324012 38154.88151375097
          14704.027102114502 38154.881513714194 74822.05699700903 68612.67127317796 14786.005832197048 14786.005832151064
          68612.67127317033 36872.26987749844 34747.20123285877 14796.240028012633 34747.20123282117 67312.13086386744
          33446.66082353326 90952.21010894582 14226.589811162901 14226.589811121388 90952.21010894093 44442.2602035524
          13934.893829425555 44442.26020351614 89703.28505605544 83102.22884315657 14189.889887521247 14189.889887478095
          83102.2288431515 43193.33515064634 40955.36498154651 13999.001519762478 40955.36498151009 81837.54597999246
          39690.68211836673 105946.858891095 13939.776189817783 13939.776189778631 105946.85889108988 51557.63089044986
          12624.466468202918 51557.6308904148 104657.53240464974 98365.20627005813 13669.859353702588 13669.859353662745
          98365.20627005385 50268.30440398964 47319.43923975689 13083.863011791904 47319.439239721236 97132.03902744169
          46086.27199712476 113176.38261039238 14278.932684942736 14278.932684896701 113176.38261038694 62952.68702490283
          13510.834897628885 62952.68702487297 111280.96386838306 109868.124593655 12766.780655811926 12766.78065577012
          109868.12459365043 61057.2682828813 55287.350862765845 11835.916850735855 55287.35086273274 108522.63886338164
          53941.86513247822 16029.47977825666 38265.41817972735 38265.418179732966 16029.479778246177 23325.405227910862
          36071.55027943583 23325.40522791112 15888.741948426707 15337.000467500538 30595.675866817535 30595.67586682006
          15337.00046748975 21131.537327616665 19869.337359042707 27679.407445108427 19869.337359040954 14231.294997240147
          16953.06893733146 15840.376142238472 51900.42850426777 51900.42850427654 15840.376142224552 28349.627075029915
          50499.23464181399 28349.627075027995 15995.103477922052 15855.325363130018 44515.865818739934 44515.865818746395
          15855.325363119775 26948.433212570795 24959.88873812076 43044.398439864875 24959.888738120775 15826.701858074173
          23488.42135924248 15086.517514359379 66310.693665645 66310.69366566307 15086.517514341462 34290.42910856854
          65004.578119468875 34290.42910857065 15230.817429189787 15220.022754343701 58763.44377329793 58763.44377331385
          15220.02275432708 32984.31356238443 30899.385697756174 57432.52342726786 30899.385697757178 15310.89349440241
          29568.46535171865 14494.369597427445 81188.12789768085 81188.1278977081 14494.36959740731 40480.926663600025
          79925.19664050755 40480.9266636065 14393.229851846882 14510.913504221608 73326.83314053967 73326.83314056142
          14510.913504204917 39217.99540641633 37016.98708577134 72045.52239421825 37016.987085776054 14483.573636981819
          35735.67633944141 14172.24338877449 96152.51292227342 96152.51292230474 14172.2433887519 47461.741319736044
          94862.77487672179 47461.74131974549 13109.03839925339 13899.491869057414 88560.17589505806 88560.17589508963
          13899.491869033385 46172.00327417347 43307.63603179275 87315.62412703228 43307.63603179982 13519.252637689387
          42063.08426375472 13233.360689351613 100331.88755708441 100331.88755711724 13233.360689333436 51061.395020085045
          98996.9632340078 51061.39502009861 12446.971556004766 49726.4706969988 21726.727121180447 24930.37772401925
          5008.163655404156 14564.266908619618 22376.87845650647 12167.694039869624 8454.08050246811 14927.413255776424
          17486.40843336198 8834.70555958395 12613.90282964521 11647.934514715027 15138.885688296374 10592.69204181809
          10650.379352150294 10326.76756556846 31126.517799218447 34497.27860180927 2728.28218250189 18675.248066792854
          31411.99871981294 15702.965154205971 7340.446668294936 26028.5814792663 29982.77989373348 3204.8990821729976
          16466.407456104327 16137.86276530787 26631.20189101339 13558.551142923956 7688.956770974435 14124.79098596463
          39821.50996298609 42936.61176344715 3039.6382634566776 22986.384602311435 39985.38731066973 20377.590241863123
          7235.806568433323 35240.02176457498 38657.8711532491 2689.065586890371 21000.062167962737 20555.96706869464
          35564.69459281114 17889.1262391998 7155.142070509635 18575.57620079045 48038.134541645515 50830.98359268361
          4429.655129873652 27306.965156528626 48050.946868667896 25259.960273941047 7910.980661179006 43759.221014990864
          46775.61291367878 3519.9447459123276 25610.604677585874 24962.804597551658 43905.49323738287 22711.05141748791
          7385.357541067323 23208.697976917454 57376.46289534452 59774.12072124204 7043.909184618311 31718.790422625854
          56775.897413284154 30233.235732327776 9821.484877034334 52227.54189069536 54664.00503906087 5051.107242525245
          30122.911924556844 29368.925675398277 52034.313099638595 27553.565378425537 8208.607342294199 27817.469458598884
          65227.06218046782 66322.42356717183 4149.119661862485 33934.75384143158 63833.86589920596 31188.203935679874
          7424.967955453212 31581.849248492297 21726.727121174037 14564.266908610967 21412.984865282866 14927.413255770094
          13851.332009732452 11647.934514708 14897.373726735757 11068.936098522416 31126.51779920901 18675.24806678033