<VTKFile type="UnstructuredGrid" version="2.2" byte_order="LittleEndian">
<UnstructuredGrid>
<Piece NumberOfPoints="320" NumberOfCells="80">
<Points>
<DataArray type="Float64" NumberOfComponents="3" format="ascii">
0 0 0
0.25 0 0
0.077254 0.237764 0
0.327254 0.237764 0
0.25 0 0
0.5 0 0
0.327254 0.237764 0
0.577255 0.237764 0
0.327254 0.237764 0
0.577255 0.237764 0
0.404508 0.475529 0
0.654509 0.475529 0
0.077254 0.237764 0
0.327254 0.237764 0
0.154508 0.475529 0
0.404508 0.475529 0
0 0 0
0.077254 0.237764 0
-0.202254 0.146947 0
-0.125 0.384711 0
0.077254 0.237764 0
0.154508 0.475529 0
-0.125 0.384711 0
-0.047746 0.622475 0
-0.125 0.384711 0
-0.047746 0.622475 0
-0.327254 0.531657 0
-0.25 0.769421 0
-0.202254 0.146947 0
-0.125 0.384711 0
-0.404508 0.293893 0
-0.327254 0.531657 0
0 0 0
-0.202254 0.146947 0
-0.202254 -0.146947 0
-0.404508 0 0
-0.202254 0.146947 0
-0.404508 0.293893 0
-0.404508 0 0
-0.606762 0.146947 0
-0.404508 0 0
-0.606762 0.146947 0
-0.606762 -0.146947 0
-0.809016 0 0
-0.202254 -0.146947 0
-0.404508 0 0
-0.404508 -0.293893 0
-0.606762 -0.146947 0
0 0 0
-0.202254 -0.146947 0
0.077254 -0.237764 0
-0.125 -0.38471 0
-0.202254 -0.146947 0
-0.404508 -0.293893 0
-0.125 -0.38471 0
-0.327254 -0.531656 0
-0.125 -0.38471 0
-0.327254 -0.531656 0
-0.047746 -0.622475 0
-0.25 -0.76942 0
0.077254 -0.237764 0
-0.125 -0.38471 0
0.154508 -0.475529 0
-0.047746 -0.622475 0
0 0 0
0.077254 -0.237764 0
0.25 0 0
0.327254 -0.237764 0
0.077254 -0.237764 0
0.154508 -0.475529 0
0.327254 -0.237764 0
0.404508 -0.475529 0
0.327254 -0.237764 0
0.404508 -0.475529 0
0.577255 -0.237764 0
0.654509 -0.475529 0
0.25 0 0
0.327254 -0.237764 0
0.5 0 0
0.577255 -0.237764 0
0.5 0 0
0.75 0 0
0.577255 0.237764 0
0.827255 0.237764 0
0.75 0 0
1 0 0
0.827255 0.237764 0
1.07726 0.237764 0
0.827255 0.237764 0
1.07726 0.237764 0
0.904509 0.475529 0
1.15451 0.475529 0
0.577255 0.237764 0
0.827255 0.237764 0
0.654509 0.475529 0
0.904509 0.475529 0
0.654509 0.475529 0
0.904509 0.475529 0
0.731764 0.713293 0
0.981765 0.713293 0
0.904509 0.475529 0
1.15451 0.475529 0
0.981765 0.713293 0
1.23176 0.713293 0
0.981765 0.713293 0
1.23176 0.713293 0
1.05902 0.951057 0
1.30902 0.951057 0
0.731764 0.713293 0
0.981765 0.713293 0
0.809019 0.951057 0
1.05902 0.951057 0
0.154508 0.475529 0
0.404508 0.475529 0
0.231762 0.713293 0
0.481763 0.713293 0
0.404508 0.475529 0
0.654509 0.475529 0
0.481763 0.713293 0
0.731764 0.713293 0
0.481763 0.713293 0
0.731764 0.713293 0
0.559018 0.951057 0
0.809019 0.951057 0
0.231762 0.713293 0
0.481763 0.713293 0
0.309017 0.951057 0
0.559018 0.951057 0
0.154508 0.475529 0
0.231762 0.713293 0
-0.047746 0.622475 0
0.0295084 0.860239 0
0.231762 0.713293 0
0.309017 0.951057 0
0.0295084 0.860239 0
0.106763 1.098 0
0.0295084 0.860239 0
0.106763 1.098 0
-0.172746 1.00719 0
-0.0954915 1.24495 0
-0.047746 0.622475 0
0.0295084 0.860239 0
-0.25 0.769421 0
-0.172746 1.00719 0
-0.25 0.769421 0
-0.172746 1.00719 0
-0.452254 0.916365 0
-0.375 1.15413 0
-0.172746 1.00719 0
-0.0954915 1.24495 0
-0.375 1.15413 0
-0.297746 1.39189 0
-0.375 1.15413 0
-0.297746 1.39189 0
-0.577254 1.30107 0
-0.5 1.53884 0
-0.452254 0.916365 0
-0.375 1.15413 0
-0.654508 1.06331 0
-0.577254 1.30107 0
-0.404508 0.293893 0
-0.327254 0.531657 0
-0.606762 0.440839 0
-0.529508 0.678602 0
-0.327254 0.531657 0
-0.25 0.769421 0
-0.529508 0.678602 0
-0.452254 0.916365 0
-0.529508 0.678602 0
-0.452254 0.916365 0
-0.731762 0.825547 0
-0.654508 1.06331 0
-0.606762 0.440839 0
-0.529508 0.678602 0
-0.809017 0.587785 0
-0.731762 0.825547 0
-0.404508 0.293893 0
-0.606762 0.440839 0
-0.606762 0.146947 0
-0.809015 0.293893 0
-0.606762 0.440839 0
-0.809017 0.587785 0
-0.809015 0.293893 0
-1.01127 0.440839 0
-0.809015 0.293893 0
-1.01127 0.440839 0
-1.01127 0.146947 0
-1.21352 0.293893 0
-0.606762 0.146947 0
-0.809015 0.293893 0
-0.809016 0 0
-1.01127 0.146947 0
-0.809016 0 0
-1.01127 0.146947 0
-1.01127 -0.146946 0
-1.21352 2.5e-07 0
-1.01127 0.146947 0
-1.21352 0.293893 0
-1.21352 2.5e-07 0
-1.41578 0.146947 0
-1.21352 2.5e-07 0
-1.41578 0.146947 0
-1.41578 -0.146946 0
-1.61803 0 0
-1.01127 -0.146946 0
-1.21352 2.5e-07 0
-1.21352 -0.293892 0
-1.41578 -0.146946 0
-0.404508 -0.293893 0
-0.606762 -0.146947 0
-0.606762 -0.440839 0
-0.809015 -0.293893 0
-0.606762 -0.146947 0
-0.809016 0 0
-0.809015 -0.293893 0
-1.01127 -0.146946 0
-0.809015 -0.293893 0
-1.01127 -0.146946 0
-1.01127 -0.440839 0
-1.21352 -0.293892 0
-0.606762 -0.440839 0
-0.809015 -0.293893 0
-0.809017 -0.587785 0
-1.01127 -0.440839 0
-0.404508 -0.293893 0
-0.606762 -0.440839 0
-0.327254 -0.531656 0
-0.529508 -0.678602 0
-0.606762 -0.440839 0
-0.809017 -0.587785 0
-0.529508 -0.678602 0
-0.731762 -0.825547 0
-0.529508 -0.678602 0
-0.731762 -0.825547 0
-0.452254 -0.916365 0
-0.654508 -1.06331 0
-0.327254 -0.531656 0
-0.529508 -0.678602 0
-0.25 -0.76942 0
-0.452254 -0.916365 0
-0.25 -0.76942 0
-0.452254 -0.916365 0
-0.172746 -1.00718 0
-0.375 -1.15413 0
-0.452254 -0.916365 0
-0.654508 -1.06331 0
-0.375 -1.15413 0
-0.577254 -1.30107 0
-0.375 -1.15413 0
-0.577254 -1.30107 0
-0.297746 -1.39189 0
-0.5 -1.53884 0
-0.172746 -1.00718 0
-0.375 -1.15413 0
-0.0954915 -1.24495 0
-0.297746 -1.39189 0
0.154508 -0.475529 0
-0.047746 -0.622475 0
0.231762 -0.713293 0
0.0295084 -0.860239 0
-0.047746 -0.622475 0
-0.25 -0.76942 0
0.0295084 -0.860239 0
-0.172746 -1.00718 0
0.0295084 -0.860239 0
-0.172746 -1.00718 0
0.106763 -1.098 0
-0.0954915 -1.24495 0
0.231762 -0.713293 0
0.0295084 -0.860239 0
0.309017 -0.951057 0
0.106763 -1.098 0
0.154508 -0.475529 0
0.231762 -0.713293 0
0.404508 -0.475529 0
0.481763 -0.713293 0
0.231762 -0.713293 0
0.309017 -0.951057 0
0.481763 -0.713293 0
0.559018 -0.951057 0
0.481763 -0.713293 0
0.559018 -0.951057 0
0.731764 -0.713293 0
0.809019 -0.951057 0
0.404508 -0.475529 0
0.481763 -0.713293 0
0.654509 -0.475529 0
0.731764 -0.713293 0
0.654509 -0.475529 0
0.731764 -0.713293 0
0.904509 -0.475529 0
0.981765 -0.713293 0
0.731764 -0.713293 0
0.809019 -0.951057 0
0.981765 -0.713293 0
1.05902 -0.951057 0
0.981765 -0.713293 0
1.05902 -0.951057 0
1.23176 -0.713293 0
1.30902 -0.951057 0
0.904509 -0.475529 0
0.981765 -0.713293 0
1.15451 -0.475529 0
1.23176 -0.713293 0
0.5 0 0
0.577255 -0.237764 0
0.75 0 0
0.827255 -0.237764 0
0.577255 -0.237764 0
0.654509 -0.475529 0
0.827255 -0.237764 0
0.904509 -0.475529 0
0.827255 -0.237764 0
0.904509 -0.475529 0
1.07726 -0.237764 0
1.15451 -0.475529 0
0.75 0 0
0.827255 -0.237764 0
1 0 0
1.07726 -0.237764 0
</DataArray>
</Points>
<Cells>
<DataArray type="Int32" Name="connectivity" format="ascii">
0 1 3 2 
4 5 7 6 
8 9 11 10 
12 13 15 14 
16 17 19 18 
20 21 23 22 
24 25 27 26 
28 29 31 30 
32 33 35 34 
36 37 39 38 
40 41 43 42 
44 45 47 46 
48 49 51 50 
52 53 55 54 
56 57 59 58 
60 61 63 62 
64 65 67 66 
68 69 71 70 
72 73 75 74 
76 77 79 78 
80 81 83 82 
84 85 87 86 
88 89 91 90 
92 93 95 94 
96 97 99 98 
100 101 103 102 
104 105 107 106 
108 109 111 110 
112 113 115 114 
116 117 119 118 
120 121 123 122 
124 125 127 126 
128 129 131 130 
132 133 135 134 
136 137 139 138 
140 141 143 142 
144 145 147 146 
148 149 151 150 
152 153 155 154 
156 157 159 158 
160 161 163 162 
164 165 167 166 
168 169 171 170 
172 173 175 174 
176 177 179 178 
180 181 183 182 
184 185 187 186 
188 189 191 190 
192 193 195 194 
196 197 199 198 
200 201 203 202 
204 205 207 206 
208 209 211 210 
212 213 215 214 
216 217 219 218 
220 221 223 222 
224 225 227 226 
228 229 231 230 
232 233 235 234 
236 237 239 238 
240 241 243 242 
244 245 247 246 
248 249 251 250 
252 253 255 254 
256 257 259 258 
260 261 263 262 
264 265 267 266 
268 269 271 270 
272 273 275 274 
276 277 279 278 
280 281 283 282 
284 285 287 286 
288 289 291 290 
292 293 295 294 
296 297 299 298 
300 301 303 302 
304 305 307 306 
308 309 311 310 
312 313 315 314 
316 317 319 318 
</DataArray>
<DataArray type="Int32" Name="offsets" format="ascii">
4
8
12
16
20
24
28
32
36
40
44
48
52
56
60
64
68
72
76
80
84
88
92
96
100
104
108
112
116
120
124
128
132
136
140
144
148
152
156
160
164
168
172
176
180
184
188
192
196
200
204
208
212
216
220
224
228
232
236
240
244
248
252
256
260
264
268
272
276
280
284
288
292
296
300
304
308
312
316
320
</DataArray>
<DataArray type="UInt8" Name="types" format="ascii">
9
9
9
9
9
9
9
9
9
9
9
9
9
9
9
9
9
9
9
9
9
9
9
9
9
9
9
9
9
9
9
9
9
9
9
9
9
9
9
9
9
9
9
9
9
9
9
9
9
9
9
9
9
9
9
9
9
9
9
9
9
9
9
9
9
9
9
9
9
9
9
9
9
9
9
9
9
9
9
9
</DataArray>
</Cells>
<CellData Scalars="attribute">
<DataArray type="Int32" Name="attribute" format="ascii">
1
1
1
1
1
1
1
1
1
1
1
1
1
1
1
1
1
1
1
1
1
1
1
1
1
1
1
1
1
1
1
1
1
1
1
1
1
1
1
1
1
1
1
1
1
1
1
1
1
1
1
1
1
1
1
1
1
1
1
1
1
1
1
1
1
1
1
1
1
1
1
1
1
1
1
1
1
1
1
1
</DataArray>
</CellData>
<PointData >
<DataArray type="Float64" Name="u_imag" NumberOfComponents="1"  format="ascii" >
0.044348
-0.00242058
-0.00242057
-0.0828058
-0.00242058
0.0760846
-0.0828058
0.0446804
-0.0828058
0.0446804
0.0446814
0.245555
-0.00242057
-0.0828058
0.0760848
0.0446814
0.044348
-0.00242057
-0.00242066
-0.082806
-0.00242057
0.0760848
-0.082806
0.0446799
-0.082806
0.0446799
0.0446813
0.245557
-0.00242066
-0.082806
0.0760851
0.0446813
0.044348
-0.00242066
-0.00242072
-0.0828064
-0.00242066
0.0760851
-0.0828064
0.0446811
-0.0828064
0.0446811
0.0446814
0.24556
-0.00242072
-0.0828064
0.0760851
0.0446814
0.044348
-0.00242072
-0.00242056
-0.082806
-0.00242072
0.0760851
-0.082806
0.0446812
-0.082806
0.0446812
0.0446795
0.245555
-0.00242056
-0.082806
0.0760848
0.0446795
0.044348
-0.00242056
-0.00242058
-0.0828057
-0.00242056
0.0760848
-0.0828057
0.0446814
-0.0828057
0.0446814
0.0446804
0.245555
-0.00242058
-0.0828057
0.0760846
0.0446804
0.0760846
-0.00932946
0.0446804
-0.241602
-0.00932946
0
-0.241602
0
-0.241602
0
-0.0308121
0
0.0446804
-0.241602
0.245555
-0.0308121
0.245555
-0.0308121
-0.0308146
-0.49895
-0.0308121
0
-0.49895
0
-0.49895
0
0
0
-0.0308146
-0.49895
0
0
0.0760848
0.0446814
-0.00933029
-0.241603
0.0446814
0.245555
-0.241603
-0.0308146
-0.241603
-0.0308146
0
0
-0.00933029
-0.241603
0
0
0.0760848
-0.00933029
0.0446799
-0.241601
-0.00933029
0
-0.241601
0
-0.241601
0
-0.0308128
0
0.0446799
-0.241601
0.245557
-0.0308128
0.245557
-0.0308128
-0.0308175
-0.49895
-0.0308128
0
-0.49895
0
-0.49895
0
0
0
-0.0308175
-0.49895
0
0
0.0760851
0.0446813
-0.00933166
-0.241602
0.0446813
0.245557
-0.241602
-0.0308175
-0.241602
-0.0308175
0
0
-0.00933166
-0.241602
0
0
0.0760851
-0.00933166
0.0446811
-0.241602
-0.00933166
0
-0.241602
0
-0.241602
0
-0.0308159
0
0.0446811
-0.241602
0.24556
-0.0308159
0.24556
-0.0308159
-0.0308168
-0.498956
-0.0308159
0
-0.498956
0
-0.498956
0
0
0
-0.0308168
-0.498956
0
0
0.0760851
0.0446814
-0.00933171
-0.241603
0.0446814
0.24556
-0.241603
-0.0308168
-0.241603
-0.0308168
0
0
-0.00933171
-0.241603
0
0
0.0760851
-0.00933171
0.0446812
-0.241602
-0.00933171
0
-0.241602
0
-0.241602
0
-0.0308172
0
0.0446812
-0.241602
0.245555
-0.0308172
0.245555
-0.0308172
-0.0308112
-0.498949
-0.0308172
0
-0.498949
0
-0.498949
0
0
0
-0.0308112
-0.498949
0
0
0.0760848
0.0446795
-0.00933029
-0.241601
0.0446795
0.245555
-0.241601
-0.0308112
-0.241601
-0.0308112
0
0
-0.00933029
-0.241601
0
0
0.0760848
-0.00933029
0.0446814
-0.241603
-0.00933029
0
-0.241603
0
-0.241603
0
-0.0308146
0
0.0446814
-0.241603
0.245555
-0.0308146
0.245555
-0.0308146
-0.0308121
-0.49895
-0.0308146
0
-0.49895
0
-0.49895
0
0
0
-0.0308121
-0.49895
0
0
0.0760846
0.0446804
-0.00932946
-0.241602
0.0446804
0.245555
-0.241602
-0.0308121
-0.241602
-0.0308121
0
0
-0.00932946
-0.241602
0
0
</DataArray>
<DataArray type="Float64" Name="u_real" NumberOfComponents="1"  format="ascii" >
0.0181374
-0.0207046
-0.0207049
-0.00445574
-0.0207046
0.0541544
-0.00445574
0.0650086
-0.00445574
0.0650086
0.0650079
0.143487
-0.0207049
-0.00445574
0.0541542
0.0650079
0.0181374
-0.0207049
-0.0207048
-0.00445543
-0.0207049
0.0541542
-0.00445543
0.0650098
-0.00445543
0.0650098
0.0650084
0.143486
-0.0207048
-0.00445543
0.0541539
0.0650084
0.0181374
-0.0207048
-0.0207048
-0.0044552
-0.0207048
0.0541539
-0.0044552
0.0650092
-0.0044552
0.0650092
0.0650088
0.143483
-0.0207048
-0.0044552
0.0541541
0.0650088
0.0181374
-0.0207048
-0.0207049
-0.00445558
-0.0207048
0.0541541
-0.00445558
0.0650084
-0.00445558
0.0650084
0.0650101
0.143487
-0.0207049
-0.00445558
0.0541542
0.0650101
0.0181374
-0.0207049
-0.0207046
-0.00445573
-0.0207049
0.0541542
-0.00445573
0.0650079
-0.00445573
0.0650079
0.0650086
0.143487
-0.0207046
-0.00445573
0.0541544
0.0650086
0.0541544
-0.290626
0.0650086
-0.272034
-0.290626
1
-0.272034
1
-0.272034
1
-0.291245
1
0.0650086
-0.272034
0.143487
-0.291245
0.143487
-0.291245
-0.291243
-0.639996
-0.291245
1
-0.639996
1
-0.639996
1
1
1
-0.291243
-0.639996
1
1
0.0541542
0.0650079
-0.290626
-0.272035
0.0650079
0.143487
-0.272035
-0.291243
-0.272035
-0.291243
1
1
-0.290626
-0.272035
1
1
0.0541542
-0.290626
0.0650098
-0.272034
-0.290626
1
-0.272034
1
-0.272034
1
-0.291248
1
0.0650098
-0.272034
0.143486
-0.291248
0.143486
-0.291248
-0.291241
-0.639994
-0.291248
1
-0.639994
1
-0.639994
1
1
1
-0.291241
-0.639994
1
1
0.0541539
0.0650084
-0.290627
-0.272035
0.0650084
0.143486
-0.272035
-0.291241
-0.272035
-0.291241
1
1
-0.290627
-0.272035
1
1
0.0541539
-0.290627
0.0650092
-0.272033
-0.290627
1
-0.272033
1
-0.272033
1
-0.291245
1
0.0650092
-0.272033
0.143483
-0.291245
0.143483
-0.291245
-0.291244
-0.639993
-0.291245
1
-0.639993
1
-0.639993
1
1
1
-0.291244
-0.639993
1
1
0.0541541
0.0650088
-0.290627
-0.272033
0.0650088
0.143483
-0.272033
-0.291244
-0.272033
-0.291244
1
1
-0.290627
-0.272033
1
1
0.0541541
-0.290627
0.0650084
-0.272035
-0.290627
1
-0.272035
1
-0.272035
1
-0.291241
1
0.0650084
-0.272035
0.143487
-0.291241
0.143487
-0.291241
-0.291248
-0.639995
-0.291241
1
-0.639995
1
-0.639995
1
1
1
-0.291248
-0.639995
1
1
0.0541542
0.0650101
-0.290626
-0.272034
0.0650101
0.143487
-0.272034
-0.291248
-0.272034
-0.291248
1
1
-0.290626
-0.272034
1
1
0.0541542
-0.290626
0.0650079
-0.272035
-0.290626
1
-0.272035
1
-0.272035
1
-0.291243
1
0.0650079
-0.272035
0.143487
-0.291243
0.143487
-0.291243
-0.291245
-0.639996
-0.291243
1
-0.639996
1
-0.639996
1
1
1
-0.291245
-0.639996
1
1
0.0541544
0.0650086
-0.290626
-0.272034
0.0650086
0.143487
-0.272034
-0.291245
-0.272034
-0.291245
1
1
-0.290626
-0.272034
1
1
</DataArray>
</PointData>
</Piece>
</UnstructuredGrid>
</VTKFile>
