<VTKFile type="UnstructuredGrid" version="2.2" byte_order="LittleEndian">
<UnstructuredGrid>
<Piece NumberOfPoints="288" NumberOfCells="36">
<Points>
<DataArray type="Float64" NumberOfComponents="3" format="ascii">
2.28284271 0 0.282842712
2.70710678 0 0.707106783
2.56568542 0 0
3 0 0
2.14517045 0.780778192 0.282842712
2.54384826 0.925885049 0.707106783
2.41095566 0.877516097 0
2.81907786 1.02606043 0
2.14517045 0.780778192 0.282842712
2.54384826 0.925885049 0.707106783
2.41095566 0.877516097 0
2.81907786 1.02606043 0
1.74875897 1.46738301 0.282842712
2.07376411 1.7400947 0.707106783
1.96542906 1.6491908 0
2.29813333 1.92836283 0
1.74875897 1.46738301 0.282842712
2.07376411 1.7400947 0.707106783
1.96542906 1.6491908 0
2.29813333 1.92836283 0
1.14142136 1.97699978 0.282842712
1.35355339 2.34442324 0.707106783
1.28284271 2.22194876 0
1.5 2.59807621 0
2 0 0.565685425
2 0 1
2.28284271 0 0.282842712
2.70710678 0 0.707106783
1.87938524 0.684040287 0.565685425
1.87938524 0.684040287 1
2.14517045 0.780778192 0.282842712
2.54384826 0.925885049 0.707106783
1.87938524 0.684040287 0.565685425
1.87938524 0.684040287 1
2.14517045 0.780778192 0.282842712
2.54384826 0.925885049 0.707106783
1.53208889 1.28557522 0.565685425
1.53208889 1.28557522 1
1.74875897 1.46738301 0.282842712
2.07376411 1.7400947 0.707106783
1.53208889 1.28557522 0.565685425
1.53208889 1.28557522 1
1.74875897 1.46738301 0.282842712
2.07376411 1.7400947 0.707106783
1 1.73205081 0.565685425
1 1.73205081 1
1.14142136 1.97699978 0.282842712
1.35355339 2.34442324 0.707106783
1.71715729 0 0.282842712
1.29289322 0 0.70710678
2 0 0.565685425
2 0 1
1.61360003 0.587302382 0.282842712
1.21492222 0.442195523 0.70710678
1.87938524 0.684040287 0.565685425
1.87938524 0.684040287 1
1.61360003 0.587302382 0.282842712
1.21492222 0.442195523 0.70710678
1.87938524 0.684040287 0.565685425
1.87938524 0.684040287 1
1.3154188 1.10376743 0.282842712
0.990413665 0.831055741 0.70710678
1.53208889 1.28557522 0.565685425
1.53208889 1.28557522 1
1.3154188 1.10376743 0.282842712
0.990413665 0.831055741 0.70710678
1.53208889 1.28557522 0.565685425
1.53208889 1.28557522 1
0.858578644 1.48710183 0.282842712
0.646446609 1.11967837 0.70710678
1 1.73205081 0.565685425
1 1.73205081 1
1.43431458 0 0
1 0 0
1.71715729 0 0.282842712
1.29289322 0 0.70710678
1.34781482 0.490564477 0
0.939692621 0.342020143 0
1.61360003 0.587302382 0.282842712
1.21492222 0.442195523 0.70710678
1.34781482 0.490564477 0
0.939692621 0.342020143 0
1.61360003 0.587302382 0.282842712
1.21492222 0.442195523 0.70710678
1.09874871 0.921959637 0
0.766044443 0.64278761 0
1.3154188 1.10376743 0.282842712
0.990413665 0.831055741 0.70710678
1.09874871 0.921959637 0
0.766044443 0.64278761 0
1.3154188 1.10376743 0.282842712
0.990413665 0.831055741 0.70710678
0.717157288 1.24215286 0
0.5 0.866025404 0
0.858578644 1.48710183 0.282842712
0.646446609 1.11967837 0.70710678
1.71715729 0 -0.282842712
1.29289322 0 -0.707106783
1.43431458 0 0
1 0 0
1.61360003 0.587302382 -0.282842712
1.21492222 0.442195525 -0.707106783
1.34781482 0.490564477 0
0.939692621 0.342020143 0
1.61360003 0.587302382 -0.282842712
1.21492222 0.442195525 -0.707106783
1.34781482 0.490564477 0
0.939692621 0.342020143 0
1.3154188 1.10376743 -0.282842712
0.990413667 0.831055743 -0.707106783
1.09874871 0.921959637 0
0.766044443 0.64278761 0
1.3154188 1.10376743 -0.282842712
0.990413667 0.831055743 -0.707106783
1.09874871 0.921959637 0
0.766044443 0.64278761 0
0.858578644 1.48710183 -0.282842712
0.64644661 1.11967837 -0.707106783
0.717157288 1.24215286 0
0.5 0.866025404 0
2 0 -0.565685425
2 0 -1
1.71715729 0 -0.282842712
1.29289322 0 -0.707106783
1.87938524 0.684040287 -0.565685425
1.87938524 0.684040287 -1
1.61360003 0.587302382 -0.282842712
1.21492222 0.442195525 -0.707106783
1.87938524 0.684040287 -0.565685425
1.87938524 0.684040287 -1
1.61360003 0.587302382 -0.282842712
1.21492222 0.442195525 -0.707106783
1.53208889 1.28557522 -0.565685425
1.53208889 1.28557522 -1
1.3154188 1.10376743 -0.282842712
0.990413667 0.831055743 -0.707106783
1.53208889 1.28557522 -0.565685425
1.53208889 1.28557522 -1
1.3154188 1.10376743 -0.282842712
0.990413667 0.831055743 -0.707106783
1 1.73205081 -0.565685425
1 1.73205081 -1
0.858578644 1.48710183 -0.282842712
0.64644661 1.11967837 -0.707106783
2.28284271 0 -0.282842712
2.70710678 0 -0.70710678
2 0 -0.565685425
2 0 -1
2.14517045 0.780778192 -0.282842712
2.54384827 0.92588505 -0.70710678
1.87938524 0.684040287 -0.565685425
1.87938524 0.684040287 -1
2.14517045 0.780778192 -0.282842712
2.54384827 0.92588505 -0.70710678
1.87938524 0.684040287 -0.565685425
1.87938524 0.684040287 -1
1.74875897 1.46738301 -0.282842712
2.07376411 1.7400947 -0.70710678
1.53208889 1.28557522 -0.565685425
1.53208889 1.28557522 -1
1.74875897 1.46738301 -0.282842712
2.07376411 1.7400947 -0.70710678
1.53208889 1.28557522 -0.565685425
1.53208889 1.28557522 -1
1.14142136 1.97699978 -0.282842712
1.35355339 2.34442324 -0.70710678
1 1.73205081 -0.565685425
1 1.73205081 -1
2.56568542 0 0
3 0 0
2.28284271 0 -0.282842712
2.70710678 0 -0.70710678
2.41095566 0.877516097 0
2.81907786 1.02606043 0
2.14517045 0.780778192 -0.282842712
2.54384827 0.92588505 -0.70710678
2.41095566 0.877516097 0
2.81907786 1.02606043 0
2.14517045 0.780778192 -0.282842712
2.54384827 0.92588505 -0.70710678
1.96542906 1.6491908 0
2.29813333 1.92836283 0
1.74875897 1.46738301 -0.282842712
2.07376411 1.7400947 -0.70710678
1.96542906 1.6491908 0
2.29813333 1.92836283 0
1.74875897 1.46738301 -0.282842712
2.07376411 1.7400947 -0.70710678
1.28284271 2.22194876 0
1.5 2.59807621 0
1.14142136 1.97699978 -0.282842712
1.35355339 2.34442324 -0.70710678
2 0 -8.59590177e-14
2.28284271 0 0.282842712
2.28284271 0 -0.282842712
2.56568542 0 0
1.87938524 0.684040287 -8.59590177e-14
2.14517045 0.780778192 0.282842712
2.14517045 0.780778192 -0.282842712
2.41095566 0.877516097 0
1.87938524 0.684040287 -8.59590177e-14
2.14517045 0.780778192 0.282842712
2.14517045 0.780778192 -0.282842712
2.41095566 0.877516097 0
1.53208889 1.28557522 -8.59590177e-14
1.74875897 1.46738301 0.282842712
1.74875897 1.46738301 -0.282842712
1.96542906 1.6491908 0
1.53208889 1.28557522 -8.59590177e-14
1.74875897 1.46738301 0.282842712
1.74875897 1.46738301 -0.282842712
1.96542906 1.6491908 0
1 1.73205081 -8.59590177e-14
1.14142136 1.97699978 0.282842712
1.14142136 1.97699978 -0.282842712
1.28284271 2.22194876 0
1.71715729 0 -0.282842712
2 0 -8.59590177e-14
2 0 -0.565685425
2.28284271 0 -0.282842712
1.61360003 0.587302382 -0.282842712
1.87938524 0.684040287 -8.59590177e-14
1.87938524 0.684040287 -0.565685425
2.14517045 0.780778192 -0.282842712
1.61360003 0.587302382 -0.282842712
1.87938524 0.684040287 -8.59590177e-14
1.87938524 0.684040287 -0.565685425
2.14517045 0.780778192 -0.282842712
1.3154188 1.10376743 -0.282842712
1.53208889 1.28557522 -8.59590177e-14
1.53208889 1.28557522 -0.565685425
1.74875897 1.46738301 -0.282842712
1.3154188 1.10376743 -0.282842712
1.53208889 1.28557522 -8.59590177e-14
1.53208889 1.28557522 -0.565685425
1.74875897 1.46738301 -0.282842712
0.858578644 1.48710183 -0.282842712
1 1.73205081 -8.59590177e-14
1 1.73205081 -0.565685425
1.14142136 1.97699978 -0.282842712
1.71715729 0 0.282842712
2 0 0.565685425
2 0 -8.59590177e-14
2.28284271 0 0.282842712
1.61360003 0.587302382 0.282842712
1.87938524 0.684040287 0.565685425
1.87938524 0.684040287 -8.59590177e-14
2.14517045 0.780778192 0.282842712
1.61360003 0.587302382 0.282842712
1.87938524 0.684040287 0.565685425
1.87938524 0.684040287 -8.59590177e-14
2.14517045 0.780778192 0.282842712
1.3154188 1.10376743 0.282842712
1.53208889 1.28557522 0.565685425
1.53208889 1.28557522 -8.59590177e-14
1.74875897 1.46738301 0.282842712
1.3154188 1.10376743 0.282842712
1.53208889 1.28557522 0.565685425
1.53208889 1.28557522 -8.59590177e-14
1.74875897 1.46738301 0.282842712
0.858578644 1.48710183 0.282842712
1 1.73205081 0.565685425
1 1.73205081 -8.59590177e-14
1.14142136 1.97699978 0.282842712
1.43431458 0 0
1.71715729 0 0.282842712
1.71715729 0 -0.282842712
2 0 -8.59590177e-14
1.34781482 0.490564477 0
1.61360003 0.587302382 0.282842712
1.61360003 0.587302382 -0.282842712
1.87938524 0.684040287 -8.59590177e-14
1.34781482 0.490564477 0
1.61360003 0.587302382 0.282842712
1.61360003 0.587302382 -0.282842712
1.87938524 0.684040287 -8.59590177e-14
1.09874871 0.921959637 0
1.3154188 1.10376743 0.282842712
1.3154188 1.10376743 -0.282842712
1.53208889 1.28557522 -8.59590177e-14
1.09874871 0.921959637 0
1.3154188 1.10376743 0.282842712
1.3154188 1.10376743 -0.282842712
1.53208889 1.28557522 -8.59590177e-14
0.717157288 1.24215286 0
0.858578644 1.48710183 0.282842712
0.858578644 1.48710183 -0.282842712
1 1.73205081 -8.59590177e-14
</DataArray>
</Points>
<Cells>
<DataArray type="Int32" Name="connectivity" format="ascii">
0 1 3 2 4 5 7 6 
8 9 11 10 12 13 15 14 
16 17 19 18 20 21 23 22 
24 25 27 26 28 29 31 30 
32 33 35 34 36 37 39 38 
40 41 43 42 44 45 47 46 
48 49 51 50 52 53 55 54 
56 57 59 58 60 61 63 62 
64 65 67 66 68 69 71 70 
72 73 75 74 76 77 79 78 
80 81 83 82 84 85 87 86 
88 89 91 90 92 93 95 94 
96 97 99 98 100 101 103 102 
104 105 107 106 108 109 111 110 
112 113 115 114 116 117 119 118 
120 121 123 122 124 125 127 126 
128 129 131 130 132 133 135 134 
136 137 139 138 140 141 143 142 
144 145 147 146 148 149 151 150 
152 153 155 154 156 157 159 158 
160 161 163 162 164 165 167 166 
168 169 171 170 172 173 175 174 
176 177 179 178 180 181 183 182 
184 185 187 186 188 189 191 190 
192 193 195 194 196 197 199 198 
200 201 203 202 204 205 207 206 
208 209 211 210 212 213 215 214 
216 217 219 218 220 221 223 222 
224 225 227 226 228 229 231 230 
232 233 235 234 236 237 239 238 
240 241 243 242 244 245 247 246 
248 249 251 250 252 253 255 254 
256 257 259 258 260 261 263 262 
264 265 267 266 268 269 271 270 
272 273 275 274 276 277 279 278 
280 281 283 282 284 285 287 286 
</DataArray>
<DataArray type="Int32" Name="offsets" format="ascii">
8
16
24
32
40
48
56
64
72
80
88
96
104
112
120
128
136
144
152
160
168
176
184
192
200
208
216
224
232
240
248
256
264
272
280
288
</DataArray>
<DataArray type="UInt8" Name="types" format="ascii">
12
12
12
12
12
12
12
12
12
12
12
12
12
12
12
12
12
12
12
12
12
12
12
12
12
12
12
12
12
12
12
12
12
12
12
12
</DataArray>
</Cells>
<CellData Scalars="attribute">
<DataArray type="Int32" Name="attribute" format="ascii">
1
1
1
1
1
1
1
1
1
1
1
1
1
1
1
1
1
1
1
1
1
1
1
1
1
1
1
1
1
1
1
1
1
1
1
1
</DataArray>
</CellData>
<PointData >
<DataArray type="Float64" Name="concentration" NumberOfComponents="1"  format="ascii" >
0.222681704
0
0.168049724
0
0.222785556
0
0.167726786
0
0.222785556
0
0.167726786
0
0.22279884
0
0.167850466
0
0.22279884
0
0.167850466
0
0.222681704
0
0.168049724
0
0.177784716
0
0.222681704
0
0.177919109
0
0.222785556
0
0.177919109
0
0.222785556
0
0.177862204
0
0.22279884
0
0.177862204
0
0.22279884
0
0.177784716
0
0.222681704
0
0.240397635
0
0.177784716
0
0.240491675
0
0.177919109
0
0.240491675
0
0.177919109
0
0.240489659
0
0.177862204
0
0.240489659
0
0.177862204
0
0.240397635
0
0.177784716
0
0.194456145
0
0.240397635
0
0.194372112
0
0.240491675
0
0.194372112
0
0.240491675
0
0.194378882
0
0.240489659
0
0.194378882
0
0.240489659
0
0.194456145
0
0.240397635
0
0.240398212
0
0.194456145
0
0.240492038
0
0.194372112
0
0.240492038
0
0.194372112
0
0.240489408
0
0.194378882
0
0.240489408
0
0.194378882
0
0.240398212
0
0.194456145
0
0.177791221
0
0.240398212
0
0.177909999
0
0.240492038
0
0.177909999
0
0.240492038
0
0.177862619
0
0.240489408
0
0.177862619
0
0.240489408
0
0.177791221
0
0.240398212
0
0.222709188
0
0.177791221
0
0.222777826
0
0.177909999
0
0.222777826
0
0.177909999
0
0.222791941
0
0.177862619
0
0.222791941
0
0.177862619
0
0.222709188
0
0.177791221
0
0.168049724
0
0.222709188
0
0.167726786
0
0.222777826
0
0.167726786
0
0.222777826
0
0.167850466
0
0.222791941
0
0.167850466
0
0.222791941
0
0.168049724
0
0.222709188
0
0.265317716
0.222681704
0.222709188
0.168049724
0.265286921
0.222785556
0.222777826
0.167726786
0.265286921
0.222785556
0.222777826
0.167726786
0.265293024
0.22279884
0.222791941
0.167850466
0.265293024
0.22279884
0.222791941
0.167850466
0.265317716
0.222681704
0.222709188
0.168049724
0.240398212
0.265317716
0.177791221
0.222709188
0.240492038
0.265286921
0.177909999
0.222777826
0.240492038
0.265286921
0.177909999
0.222777826
0.240489408
0.265293024
0.177862619
0.222791941
0.240489408
0.265293024
0.177862619
0.222791941
0.240398212
0.265317716
0.177791221
0.222709188
0.240397635
0.177784716
0.265317716
0.222681704
0.240491675
0.177919109
0.265286921
0.222785556
0.240491675
0.177919109
0.265286921
0.222785556
0.240489659
0.177862204
0.265293024
0.22279884
0.240489659
0.177862204
0.265293024
0.22279884
0.240397635
0.177784716
0.265317716
0.222681704
0.194456145
0.240397635
0.240398212
0.265317716
0.194372112
0.240491675
0.240492038
0.265286921
0.194372112
0.240491675
0.240492038
0.265286921
0.194378882
0.240489659
0.240489408
0.265293024
0.194378882
0.240489659
0.240489408
0.265293024
0.194456145
0.240397635
0.240398212
0.265317716
</DataArray>
<DataArray type="Float64" Name="concentration_gradient" NumberOfComponents="3" ComponentName0="0" ComponentName1="1" ComponentName2="2" format="ascii" >
-0.359009515 -0.013743118 -0.165856296 
-0.261323448 0.000574214942 -0.263542362 
-0.386930886 -0.000209906421 -0.193777667 
-0.386930886 0.000150658912 0.0016357817 
-0.342397007 -0.111509302 -0.165224222 
-0.24053343 -0.0890821752 -0.268615203 
-0.362722634 -0.132563967 -0.191525183 
-0.362845955 -0.132225147 0.00941491609 
-0.33548408 -0.130502414 -0.165224222 
-0.241353842 -0.086828112 -0.268615203 
-0.362996043 -0.131812782 -0.191525183 
-0.362948813 -0.131942545 0.0094149161 
-0.284373939 -0.220700889 -0.165435031 
-0.195638097 -0.165907374 -0.268631221 
-0.29604684 -0.248428968 -0.192200258 
-0.295958077 -0.248534752 0.00942185955 
-0.270319792 -0.237449969 -0.165435031 
-0.196627266 -0.164728528 -0.268631221 
-0.296294535 -0.248133777 -0.192200258 
-0.296151531 -0.248304203 0.00942185955 
-0.195560015 -0.301641854 -0.165856296 
-0.131172562 -0.226017812 -0.263542362 
-0.193527637 -0.335056069 -0.193777667 
-0.193334969 -0.335167307 0.001635782 
-0.250610674 0.000290073022 -0.409345498 
0.00173054184 -6.73819426e-07 -0.409345498 
-0.183065493 0.0131063308 -0.341800317 
-0.263542361 0.000184301433 -0.261323449 
-0.235921651 -0.0857676274 -0.409654935 
0.0088835721 0.00323727359 -0.409654935 
-0.168324197 -0.0732964641 -0.341868717 
-0.253018822 -0.091211726 -0.256154423 
-0.235894798 -0.0858414055 -0.409654935 
0.00888609039 0.00323035463 -0.409654935 
-0.175653564 -0.053159195 -0.341868717 
-0.252807464 -0.0917924283 -0.256154423 
-0.191893083 -0.161251214 -0.409523913 
0.00723829934 0.00607845863 -0.409523913 
-0.130627257 -0.12922957 -0.342008452 
-0.206914549 -0.171855313 -0.256169697 
-0.191999598 -0.161124275 -0.409523913 
0.00724303068 0.00607282005 -0.409523913 
-0.145006349 -0.112093235 -0.342008452 
-0.204638369 -0.174567958 -0.256169697 
-0.125124712 -0.217139494 -0.409345498 
0.000864687332 0.00149903003 -0.409345498 
-0.0769725356 -0.166945709 -0.341800317 
-0.132562726 -0.227777381 -0.261323449 
0.172626281 -0.0126248341 -0.393996379 
0.284509052 -0.000657562534 -0.282113607 
0.187975401 0.00011930118 -0.409345498 
-0.00173054147 6.7381928e-07 -0.409345498 
0.156538875 0.0751710609 -0.394035873 
0.272935401 0.0989893862 -0.276512568 
0.176973005 0.0646958293 -0.409654935 
-0.00888357143 -0.00323727334 -0.409654935 
0.165900343 0.0494506379 -0.394035873 
0.27271005 0.0996085349 -0.276512568 
0.177116905 0.0643004688 -0.409654935 
-0.00888608972 -0.00323035439 -0.409654935 
0.119836801 0.125871625 -0.394130527 
0.22261349 0.186371803 -0.276510251 
0.144100127 0.120903576 -0.409523913 
-0.0072382975 -0.00607845709 -0.409523913 
0.138360687 0.103795718 -0.394130527 
0.222251815 0.18680283 -0.276510251 
0.144213236 0.120768779 -0.409523913 
-0.00724302883 -0.0060728185 -0.409523913 
0.0688420641 0.159585676 -0.393996379 
0.141606118 0.246766425 -0.282113607 
0.0940204327 0.162772574 -0.409345498 
-0.000864687443 -0.00149903022 -0.409345498 
0.447731106 -0.000342164796 -0.285303412 
0.447731106 -0.000174332634 0.00189281998 
0.364525177 0.00781612055 -0.202097482 
0.282113608 -0.00107179304 -0.284509051 
0.420545603 0.153072919 -0.284480341 
0.420488201 0.15323063 0.0109105815 
0.346525441 0.114973923 -0.201893517 
0.25949996 0.0965745379 -0.28996368 
0.420602776 0.152915839 -0.284480341 
0.4206074 0.152903133 0.0109105815 
0.340958919 0.130267818 -0.201893517 
0.260686971 0.0933132507 -0.28996368 
0.342724943 0.287825509 -0.284526992 
0.342733634 0.287815151 0.0109109621 
0.287440895 0.225176073 -0.201906673 
0.211168699 0.179085133 -0.28996125 
0.342858474 0.287666373 -0.284526992 
0.342957663 0.287548164 0.0109109621 
0.27594845 0.238872235 -0.201906673 
0.213442823 0.176374938 -0.28996125 
0.223580939 0.387910834 -0.285303412 
0.223714577 0.387833678 0.00189281982 
0.194136996 0.30883237 -0.202097482 
0.14004968 0.244899015 -0.284509051 
0.364526878 0.00781585685 0.202097142 
0.282114285 -0.00107179565 0.284509735 
0.447731106 -0.000342164796 0.28530137 
0.447731106 -0.000174332634 -0.0018928197 
0.346526602 0.11497386 0.201893304 
0.259500349 0.0965746826 0.28996412 
0.420545603 0.153072919 0.284479059 
0.420488201 0.15323063 -0.0109105833 
0.340960269 0.130267234 0.201893304 
0.260687362 0.0933133905 0.28996412 
0.420602776 0.152915839 0.284479059 
0.4206074 0.152903133 -0.0109105833 
0.287440952 0.225174854 0.201906821 
0.211168477 0.179084945 0.289960949 
0.342724943 0.287825509 0.28452788 
0.342733634 0.287815151 -0.0109109638 
0.275946989 0.238872827 0.201906821 
0.213442598 0.176374752 0.289960949 
0.342858474 0.287666373 0.28452788 
0.342957663 0.287548164 -0.0109109638 
0.194136796 0.308834451 0.202097142 
0.140050016 0.244899602 0.284509736 
0.223580939 0.387910834 0.28530137 
0.223714577 0.387833678 -0.00189282009 
0.188011334 9.69221847e-05 0.409360475 
-0.00173060447 6.73843812e-07 0.409360475 
0.172637439 -0.0126240903 0.39398658 
0.284509734 -0.000657564193 0.282114286 
0.176929481 0.064656165 0.409633959 
-0.00888311739 -0.00323710789 0.409633959 
0.156522843 0.0751673965 0.394053045 
0.272935812 0.0989895352 0.276512986 
0.177061051 0.0642946803 0.409633959 
-0.00888563555 -0.00323018928 0.409633959 
0.165885851 0.0494427414 0.394053045 
0.27271046 0.0996086849 0.276512986 
0.144093893 0.120916156 0.409524869 
-0.00723831585 -0.0060784725 0.409524869 
0.119838272 0.125871243 0.394129053 
0.222613257 0.186371608 0.276509962 
0.144210166 0.120777588 0.409524869 
-0.0072430472 -0.0060728339 0.409524869 
0.138360386 0.103797446 0.394129053 
0.222251583 0.186802635 0.276509962 
0.0940308334 0.162808062 0.409360475 
-0.00086471872 -0.00149908445 0.409360475 
0.0688480392 0.15959511 0.39398658 
0.141606457 0.246767017 0.282114286 
-0.183060797 0.011585521 0.341869795 
-0.26357489 0.000184325131 0.261355701 
-0.250551477 0.000267684969 0.409360475 
0.00173060539 -6.73844169e-07 0.409360475 
-0.167983975 -0.0741974494 0.341862048 
-0.253010043 -0.0912085626 0.256145535 
-0.23588971 -0.0857797913 0.409633959 
0.0088831157 0.00323710727 0.409633959 
-0.175643153 -0.053154032 0.341862048 
-0.252686086 -0.0920986257 0.256145535 
-0.235875165 -0.0858197524 0.409633959 
0.00888563387 0.00323018867 0.409633959 
-0.130633033 -0.129230153 0.341987391 
-0.206974064 -0.171771428 0.256161764 
-0.191922388 -0.161258008 0.409524869 
0.00723831484 0.00607847164 0.409524869 
-0.145037975 -0.112063012 0.341987391 
-0.204632032 -0.174562552 0.256161764 
-0.192025753 -0.161134822 0.409524869 
0.00724304618 0.00607283305 0.409524869 
-0.0770011962 -0.16692374 0.341869795 
-0.132579088 -0.227805495 0.261355702 
-0.125102688 -0.217083856 0.409360475 
0.000864718711 0.00149908443 0.409360475 
-0.386930886 -0.000209906421 0.193680495 
-0.386930886 0.000150658912 -0.00163578215 
-0.359090491 -0.0136239026 0.1658401 
-0.261355703 0.000574286824 0.263574889 
-0.362722634 -0.132563967 0.191552512 
-0.362845955 -0.132225147 -0.00941491445 
-0.343265001 -0.109057923 0.165228776 
-0.240525086 -0.0890790859 0.268605881 
-0.362996043 -0.131812782 0.191552512 
-0.362948813 -0.131942545 -0.00941491446 
-0.335463509 -0.130492344 0.165228776 
-0.241303484 -0.0869404558 0.268605881 
-0.29604684 -0.248428968 0.192224651 
-0.295958077 -0.248534752 -0.00942185514 
-0.284357826 -0.220688467 0.165439096 
-0.195763314 -0.165745795 0.268622899 
-0.296294535 -0.248133777 0.192224651 
-0.296151531 -0.248304203 -0.00942185514 
-0.270333582 -0.237401911 0.165439096 
-0.19662118 -0.16472343 0.268622899 
-0.193527637 -0.335056069 0.193680495 
-0.193334969 -0.335167307 -0.00163578261 
-0.195646413 -0.301685474 0.1658401 
-0.131188752 -0.226045709 0.263574889 
-0.150692479 -0.026616168 -4.85859151e-05 
-0.171947142 -0.014357197 0.0212060776 
-0.171947142 -0.0137144265 -0.0213032494 
-0.193201806 -0.000285338525 -4.85859149e-05 
-0.150263287 -0.02654049 1.36642163e-05 
-0.166480012 -0.0468497092 0.0221985632 
-0.16720207 -0.0448658734 -0.0221712348 
-0.1827605 -0.0669837418 1.36642165e-05 
-0.132155909 -0.076290104 1.36642163e-05 
-0.158871596 -0.06775366 0.0221985632 
-0.158872486 -0.0677512162 -0.0221712348 
-0.182982894 -0.0663727197 1.36642165e-05 
-0.132134971 -0.0762780159 1.21965639e-05 
-0.141746696 -0.0990552162 0.0220161073 
-0.141746051 -0.0990559853 -0.0219917141 
-0.148851665 -0.124819852 1.21965642e-05 
-0.0980931156 -0.11684752 1.21965639e-05 
-0.126481497 -0.117247572 0.0220161073 
-0.126510885 -0.117212549 -0.0219917141 
-0.149003146 -0.124639325 1.21965642e-05 
-0.0983887906 -0.117199892 -4.85859151e-05 
-0.10247209 -0.139385169 0.0212060776 
-0.102518192 -0.139358552 -0.0213032494 
-0.0967284233 -0.167244048 -4.85859159e-05 
-0.0666226954 -0.0117825525 0.154726445 
-0.0312700715 -0.00555877553 0.119373821 
-0.0312700715 0.000182303577 0.190079069 
0.00408255246 0.0114949971 0.154726445 
-0.0683118968 -0.00762147939 0.154462036 
-0.0312992016 -0.00556391196 0.11897775 
-0.0294801144 -0.0105618132 0.189946322 
0.00807895622 -0.0100053997 0.154462036 
-0.0595504504 -0.0316933555 0.154462036 
-0.0275406474 -0.0158904548 0.11897775 
-0.0294070572 -0.010762536 0.189946322 
0.000947870981 0.00958709595 0.154462036 
-0.0630538976 -0.0288749611 0.15455658 
-0.0275172999 -0.0158769751 0.118979023 
-0.0239142472 -0.0201709262 0.190134138 
0.0119787421 -0.00759767116 0.15455658 
-0.0454924531 -0.0498038757 0.15455658 
-0.0204430344 -0.0243077565 0.118979023 
-0.0239077938 -0.020178617 0.190134138 
-0.00121527777 0.00812634945 0.15455658 
-0.0502087701 -0.0479412153 0.154726445 
-0.0204413502 -0.0243057494 0.119373821 
-0.0155359271 -0.0271378967 0.190079069 
0.0161270246 -0.0045968165 0.154726445 
-0.066632153 -0.0117833028 -0.154737944 
-0.0313176367 0.000204687101 -0.19005246 
-0.0313176367 -0.00556716257 -0.119423428 
0.00399687955 0.0124922518 -0.154737944 
-0.0682948633 -0.00761744582 -0.154445932 
-0.0294743231 -0.0105358991 -0.189927137 
-0.0312848965 -0.00556138958 -0.118964727 
0.00759279732 -0.0086368711 -0.154445932 
-0.0595349546 -0.0316850971 -0.154445932 
-0.0293889468 -0.0107704684 -0.189927137 
-0.0275280677 -0.0158831919 -0.118964727 
0.000958919518 0.00958955837 -0.154445932 
-0.0630559335 -0.0288750574 -0.154557314 
-0.0238964779 -0.020173819 -0.190148246 
-0.0275069649 -0.0158710082 -0.118966382 
0.0119999854 -0.00758389774 -0.154557314 
-0.045492721 -0.0498060791 -0.154557314 
-0.0238931811 -0.020177748 -0.190148246 
-0.0204353634 -0.0242986146 -0.118966382 
-0.00116805489 0.00810916158 -0.154557314 
-0.0502138993 -0.0479491747 -0.154737944 
-0.0155521397 -0.02718346 -0.19005246 
-0.0204723962 -0.0243427486 -0.119423428 
0.0161153889 -0.00468902518 -0.154737944 
0.162428715 -0.000231076854 -1.02065936e-06 
0.125266743 0.00865765185 0.0371609517 
0.125266743 0.00865739458 -0.037162993 
0.0881047705 0.0154902299 -1.02065952e-06 
0.153260013 0.0556710439 -6.40940051e-07 
0.121691704 0.0321854165 0.0376964238 
0.121691861 0.0321849834 -0.0376977057 
0.0876791891 0.0154151885 -6.40939865e-07 
0.153241416 0.0557221384 -6.40940051e-07 
0.115523622 0.049132083 0.0376964238 
0.115523966 0.0491311367 -0.0376977057 
0.0770871935 0.0445164573 -6.40939865e-07 
0.124835494 0.104849931 4.4399648e-07 
0.104548161 0.0704293905 0.03766654 
0.104548782 0.0704286502 -0.037665652 
0.0771107065 0.0445300325 4.43996686e-07 
0.124826601 0.10486053 4.4399648e-07 
0.0920950426 0.0852704392 0.03766654 
0.0920941488 0.0852715044 -0.037665652 
0.0572147178 0.0682411486 4.43996686e-07 
0.0810259487 0.140776172 -1.02066004e-06 
0.0750810334 0.101297521 0.0371609517 
0.0750799861 0.101298125 -0.037162993 
0.0574750443 0.0685513937 -1.02065952e-06 
</DataArray>
</PointData>
</Piece>
</UnstructuredGrid>
</VTKFile>
