<VTKFile type="UnstructuredGrid" version="2.2" byte_order="LittleEndian">
<UnstructuredGrid>
<Piece NumberOfPoints="400" NumberOfCells="100">
<Points>
<DataArray type="Float64" NumberOfComponents="3" format="ascii">
0 0 0
0.1 0 0
0 0.1 0
0.1 0.1 0
0.1 0 0
0.2 0 0
0.1 0.1 0
0.2 0.1 0
0.2 0 0
0.3 0 0
0.2 0.1 0
0.3 0.1 0
0.3 0 0
0.4 0 0
0.3 0.1 0
0.4 0.1 0
0.4 0 0
0.5 0 0
0.4 0.1 0
0.5 0.1 0
0.5 0 0
0.6 0 0
0.5 0.1 0
0.6 0.1 0
0.6 0 0
0.7 0 0
0.6 0.1 0
0.7 0.1 0
0.7 0 0
0.8 0 0
0.7 0.1 0
0.8 0.1 0
0.8 0 0
0.9 0 0
0.8 0.1 0
0.9 0.1 0
0.9 0 0
1 0 0
0.9 0.1 0
1 0.1 0
0 0.1 0
0.1 0.1 0
0 0.2 0
0.1 0.2 0
0.1 0.1 0
0.2 0.1 0
0.1 0.2 0
0.2 0.2 0
0.2 0.1 0
0.3 0.1 0
0.2 0.2 0
0.3 0.2 0
0.3 0.1 0
0.4 0.1 0
0.3 0.2 0
0.4 0.2 0
0.4 0.1 0
0.5 0.1 0
0.4 0.2 0
0.5 0.2 0
0.5 0.1 0
0.6 0.1 0
0.5 0.2 0
0.6 0.2 0
0.6 0.1 0
0.7 0.1 0
0.6 0.2 0
0.7 0.2 0
0.7 0.1 0
0.8 0.1 0
0.7 0.2 0
0.8 0.2 0
0.8 0.1 0
0.9 0.1 0
0.8 0.2 0
0.9 0.2 0
0.9 0.1 0
1 0.1 0
0.9 0.2 0
1 0.2 0
0 0.2 0
0.1 0.2 0
0 0.3 0
0.1 0.3 0
0.1 0.2 0
0.2 0.2 0
0.1 0.3 0
0.2 0.3 0
0.2 0.2 0
0.3 0.2 0
0.2 0.3 0
0.3 0.3 0
0.3 0.2 0
0.4 0.2 0
0.3 0.3 0
0.4 0.3 0
0.4 0.2 0
0.5 0.2 0
0.4 0.3 0
0.5 0.3 0
0.5 0.2 0
0.6 0.2 0
0.5 0.3 0
0.6 0.3 0
0.6 0.2 0
0.7 0.2 0
0.6 0.3 0
0.7 0.3 0
0.7 0.2 0
0.8 0.2 0
0.7 0.3 0
0.8 0.3 0
0.8 0.2 0
0.9 0.2 0
0.8 0.3 0
0.9 0.3 0
0.9 0.2 0
1 0.2 0
0.9 0.3 0
1 0.3 0
0 0.3 0
0.1 0.3 0
0 0.4 0
0.1 0.4 0
0.1 0.3 0
0.2 0.3 0
0.1 0.4 0
0.2 0.4 0
0.2 0.3 0
0.3 0.3 0
0.2 0.4 0
0.3 0.4 0
0.3 0.3 0
0.4 0.3 0
0.3 0.4 0
0.4 0.4 0
0.4 0.3 0
0.5 0.3 0
0.4 0.4 0
0.5 0.4 0
0.5 0.3 0
0.6 0.3 0
0.5 0.4 0
0.6 0.4 0
0.6 0.3 0
0.7 0.3 0
0.6 0.4 0
0.7 0.4 0
0.7 0.3 0
0.8 0.3 0
0.7 0.4 0
0.8 0.4 0
0.8 0.3 0
0.9 0.3 0
0.8 0.4 0
0.9 0.4 0
0.9 0.3 0
1 0.3 0
0.9 0.4 0
1 0.4 0
0 0.4 0
0.1 0.4 0
0 0.5 0
0.1 0.5 0
0.1 0.4 0
0.2 0.4 0
0.1 0.5 0
0.2 0.5 0
0.2 0.4 0
0.3 0.4 0
0.2 0.5 0
0.3 0.5 0
0.3 0.4 0
0.4 0.4 0
0.3 0.5 0
0.4 0.5 0
0.4 0.4 0
0.5 0.4 0
0.4 0.5 0
0.5 0.5 0
0.5 0.4 0
0.6 0.4 0
0.5 0.5 0
0.6 0.5 0
0.6 0.4 0
0.7 0.4 0
0.6 0.5 0
0.7 0.5 0
0.7 0.4 0
0.8 0.4 0
0.7 0.5 0
0.8 0.5 0
0.8 0.4 0
0.9 0.4 0
0.8 0.5 0
0.9 0.5 0
0.9 0.4 0
1 0.4 0
0.9 0.5 0
1 0.5 0
0 0.5 0
0.1 0.5 0
0 0.6 0
0.1 0.6 0
0.1 0.5 0
0.2 0.5 0
0.1 0.6 0
0.2 0.6 0
0.2 0.5 0
0.3 0.5 0
0.2 0.6 0
0.3 0.6 0
0.3 0.5 0
0.4 0.5 0
0.3 0.6 0
0.4 0.6 0
0.4 0.5 0
0.5 0.5 0
0.4 0.6 0
0.5 0.6 0
0.5 0.5 0
0.6 0.5 0
0.5 0.6 0
0.6 0.6 0
0.6 0.5 0
0.7 0.5 0
0.6 0.6 0
0.7 0.6 0
0.7 0.5 0
0.8 0.5 0
0.7 0.6 0
0.8 0.6 0
0.8 0.5 0
0.9 0.5 0
0.8 0.6 0
0.9 0.6 0
0.9 0.5 0
1 0.5 0
0.9 0.6 0
1 0.6 0
0 0.6 0
0.1 0.6 0
0 0.7 0
0.1 0.7 0
0.1 0.6 0
0.2 0.6 0
0.1 0.7 0
0.2 0.7 0
0.2 0.6 0
0.3 0.6 0
0.2 0.7 0
0.3 0.7 0
0.3 0.6 0
0.4 0.6 0
0.3 0.7 0
0.4 0.7 0
0.4 0.6 0
0.5 0.6 0
0.4 0.7 0
0.5 0.7 0
0.5 0.6 0
0.6 0.6 0
0.5 0.7 0
0.6 0.7 0
0.6 0.6 0
0.7 0.6 0
0.6 0.7 0
0.7 0.7 0
0.7 0.6 0
0.8 0.6 0
0.7 0.7 0
0.8 0.7 0
0.8 0.6 0
0.9 0.6 0
0.8 0.7 0
0.9 0.7 0
0.9 0.6 0
1 0.6 0
0.9 0.7 0
1 0.7 0
0 0.7 0
0.1 0.7 0
0 0.8 0
0.1 0.8 0
0.1 0.7 0
0.2 0.7 0
0.1 0.8 0
0.2 0.8 0
0.2 0.7 0
0.3 0.7 0
0.2 0.8 0
0.3 0.8 0
0.3 0.7 0
0.4 0.7 0
0.3 0.8 0
0.4 0.8 0
0.4 0.7 0
0.5 0.7 0
0.4 0.8 0
0.5 0.8 0
0.5 0.7 0
0.6 0.7 0
0.5 0.8 0
0.6 0.8 0
0.6 0.7 0
0.7 0.7 0
0.6 0.8 0
0.7 0.8 0
0.7 0.7 0
0.8 0.7 0
0.7 0.8 0
0.8 0.8 0
0.8 0.7 0
0.9 0.7 0
0.8 0.8 0
0.9 0.8 0
0.9 0.7 0
1 0.7 0
0.9 0.8 0
1 0.8 0
0 0.8 0
0.1 0.8 0
0 0.9 0
0.1 0.9 0
0.1 0.8 0
0.2 0.8 0
0.1 0.9 0
0.2 0.9 0
0.2 0.8 0
0.3 0.8 0
0.2 0.9 0
0.3 0.9 0
0.3 0.8 0
0.4 0.8 0
0.3 0.9 0
0.4 0.9 0
0.4 0.8 0
0.5 0.8 0
0.4 0.9 0
0.5 0.9 0
0.5 0.8 0
0.6 0.8 0
0.5 0.9 0
0.6 0.9 0
0.6 0.8 0
0.7 0.8 0
0.6 0.9 0
0.7 0.9 0
0.7 0.8 0
0.8 0.8 0
0.7 0.9 0
0.8 0.9 0
0.8 0.8 0
0.9 0.8 0
0.8 0.9 0
0.9 0.9 0
0.9 0.8 0
1 0.8 0
0.9 0.9 0
1 0.9 0
0 0.9 0
0.1 0.9 0
0 1 0
0.1 1 0
0.1 0.9 0
0.2 0.9 0
0.1 1 0
0.2 1 0
0.2 0.9 0
0.3 0.9 0
0.2 1 0
0.3 1 0
0.3 0.9 0
0.4 0.9 0
0.3 1 0
0.4 1 0
0.4 0.9 0
0.5 0.9 0
0.4 1 0
0.5 1 0
0.5 0.9 0
0.6 0.9 0
0.5 1 0
0.6 1 0
0.6 0.9 0
0.7 0.9 0
0.6 1 0
0.7 1 0
0.7 0.9 0
0.8 0.9 0
0.7 1 0
0.8 1 0
0.8 0.9 0
0.9 0.9 0
0.8 1 0
0.9 1 0
0.9 0.9 0
1 0.9 0
0.9 1 0
1 1 0
</DataArray>
</Points>
<Cells>
<DataArray type="Int32" Name="connectivity" format="ascii">
0 1 3 2 
4 5 7 6 
8 9 11 10 
12 13 15 14 
16 17 19 18 
20 21 23 22 
24 25 27 26 
28 29 31 30 
32 33 35 34 
36 37 39 38 
40 41 43 42 
44 45 47 46 
48 49 51 50 
52 53 55 54 
56 57 59 58 
60 61 63 62 
64 65 67 66 
68 69 71 70 
72 73 75 74 
76 77 79 78 
80 81 83 82 
84 85 87 86 
88 89 91 90 
92 93 95 94 
96 97 99 98 
100 101 103 102 
104 105 107 106 
108 109 111 110 
112 113 115 114 
116 117 119 118 
120 121 123 122 
124 125 127 126 
128 129 131 130 
132 133 135 134 
136 137 139 138 
140 141 143 142 
144 145 147 146 
148 149 151 150 
152 153 155 154 
156 157 159 158 
160 161 163 162 
164 165 167 166 
168 169 171 170 
172 173 175 174 
176 177 179 178 
180 181 183 182 
184 185 187 186 
188 189 191 190 
192 193 195 194 
196 197 199 198 
200 201 203 202 
204 205 207 206 
208 209 211 210 
212 213 215 214 
216 217 219 218 
220 221 223 222 
224 225 227 226 
228 229 231 230 
232 233 235 234 
236 237 239 238 
240 241 243 242 
244 245 247 246 
248 249 251 250 
252 253 255 254 
256 257 259 258 
260 261 263 262 
264 265 267 266 
268 269 271 270 
272 273 275 274 
276 277 279 278 
280 281 283 282 
284 285 287 286 
288 289 291 290 
292 293 295 294 
296 297 299 298 
300 301 303 302 
304 305 307 306 
308 309 311 310 
312 313 315 314 
316 317 319 318 
320 321 323 322 
324 325 327 326 
328 329 331 330 
332 333 335 334 
336 337 339 338 
340 341 343 342 
344 345 347 346 
348 349 351 350 
352 353 355 354 
356 357 359 358 
360 361 363 362 
364 365 367 366 
368 369 371 370 
372 373 375 374 
376 377 379 378 
380 381 383 382 
384 385 387 386 
388 389 391 390 
392 393 395 394 
396 397 399 398 
</DataArray>
<DataArray type="Int32" Name="offsets" format="ascii">
4
8
12
16
20
24
28
32
36
40
44
48
52
56
60
64
68
72
76
80
84
88
92
96
100
104
108
112
116
120
124
128
132
136
140
144
148
152
156
160
164
168
172
176
180
184
188
192
196
200
204
208
212
216
220
224
228
232
236
240
244
248
252
256
260
264
268
272
276
280
284
288
292
296
300
304
308
312
316
320
324
328
332
336
340
344
348
352
356
360
364
368
372
376
380
384
388
392
396
400
</DataArray>
<DataArray type="UInt8" Name="types" format="ascii">
9
9
9
9
9
9
9
9
9
9
9
9
9
9
9
9
9
9
9
9
9
9
9
9
9
9
9
9
9
9
9
9
9
9
9
9
9
9
9
9
9
9
9
9
9
9
9
9
9
9
9
9
9
9
9
9
9
9
9
9
9
9
9
9
9
9
9
9
9
9
9
9
9
9
9
9
9
9
9
9
9
9
9
9
9
9
9
9
9
9
9
9
9
9
9
9
9
9
9
9
</DataArray>
</Cells>
<CellData Scalars="attribute">
<DataArray type="Int32" Name="attribute" format="ascii">
1
1
1
1
1
1
1
1
1
1
1
1
1
1
1
1
1
1
1
1
1
1
1
1
1
1
1
1
1
1
1
1
1
1
1
1
1
1
1
1
1
1
1
1
1
1
1
1
1
1
1
1
1
1
1
1
1
1
1
1
1
1
1
1
1
1
1
1
1
1
1
1
1
1
1
1
1
1
1
1
1
1
1
1
1
1
1
1
1
1
1
1
1
1
1
1
1
1
1
1
</DataArray>
</CellData>
<PointData >
<DataArray type="Float64" Name="concentration" NumberOfComponents="1"  format="ascii" >
0
0
0.193722929
0.149541025
0
0
0.149541025
0.127817471
0
0
0.127817471
0.117361861
0
0
0.117361861
0.115336487
0
0
0.115336487
0.121277071
0
0
0.121277071
0.13663075
0
0
0.13663075
0.16685534
0
0
0.16685534
0.217965329
0
0
0.217965329
0.228491738
0
0
0.228491738
0.193722929
0.193722929
0.149541025
0.336039507
0.273099839
0.149541025
0.127817471
0.273099839
0.235648456
0.127817471
0.117361861
0.235648456
0.216888586
0.117361861
0.115336487
0.216888586
0.213203886
0.115336487
0.121277071
0.213203886
0.223960493
0.121277071
0.13663075
0.223960493
0.251084951
0.13663075
0.16685534
0.251084951
0.299868143
0.16685534
0.217965329
0.299868143
0.367594816
0.217965329
0.228491738
0.367594816
0.382611325
0.228491738
0.193722929
0.382611325
0.336039507
0.336039507
0.273099839
0.433704948
0.362095383
0.273099839
0.235648456
0.362095383
0.316228992
0.235648456
0.216888586
0.316228992
0.292154492
0.216888586
0.213203886
0.292154492
0.287357043
0.213203886
0.223960493
0.287357043
0.301295052
0.223960493
0.251084951
0.301295052
0.335498709
0.251084951
0.299868143
0.335498709
0.393294049
0.299868143
0.367594816
0.393294049
0.468322467
0.367594816
0.382611325
0.468322467
0.485048865
0.382611325
0.336039507
0.485048865
0.433704948
0.433704948
0.362095383
0.49093822
0.415486191
0.362095383
0.316228992
0.415486191
0.365616911
0.316228992
0.292154492
0.365616911
0.338842077
0.292154492
0.287357043
0.338842077
0.333449983
0.287357043
0.301295052
0.333449983
0.34906178
0.301295052
0.335498709
0.34906178
0.386743569
0.335498709
0.393294049
0.386743569
0.448681635
0.393294049
0.468322467
0.448681635
0.526859377
0.468322467
0.485048865
0.526859377
0.544320257
0.485048865
0.433704948
0.544320257
0.49093822
0.49093822
0.415486191
0.509815495
0.433265302
0.415486191
0.365616911
0.433265302
0.382224279
0.365616911
0.338842077
0.382224279
0.35463857
0.338842077
0.333449983
0.35463857
0.349066344
0.333449983
0.34906178
0.349066344
0.365184505
0.34906178
0.386743569
0.365184505
0.403899032
0.386743569
0.448681635
0.403899032
0.467033786
0.448681635
0.526859377
0.467033786
0.546103365
0.526859377
0.544320257
0.546103365
0.563769321
0.544320257
0.49093822
0.563769321
0.509815495
0.509815495
0.433265302
0.49093822
0.415486191
0.433265302
0.382224279
0.415486191
0.365616911
0.382224279
0.35463857
0.365616911
0.338842077
0.35463857
0.349066344
0.338842077
0.333449983
0.349066344
0.365184505
0.333449983
0.34906178
0.365184505
0.403899032
0.34906178
0.386743569
0.403899032
0.467033786
0.386743569
0.448681635
0.467033786
0.546103365
0.448681635
0.526859377
0.546103365
0.563769321
0.526859377
0.544320257
0.563769321
0.509815495
0.544320257
0.49093822
0.49093822
0.415486191
0.433704948
0.362095383
0.415486191
0.365616911
0.362095383
0.316228992
0.365616911
0.338842077
0.316228992
0.292154492
0.338842077
0.333449983
0.292154492
0.287357043
0.333449983
0.34906178
0.287357043
0.301295052
0.34906178
0.386743569
0.301295052
0.335498709
0.386743569
0.448681635
0.335498709
0.393294049
0.448681635
0.526859377
0.393294049
0.468322467
0.526859377
0.544320257
0.468322467
0.485048865
0.544320257
0.49093822
0.485048865
0.433704948
0.433704948
0.362095383
0.336039507
0.273099839
0.362095383
0.316228992
0.273099839
0.235648456
0.316228992
0.292154492
0.235648456
0.216888586
0.292154492
0.287357043
0.216888586
0.213203886
0.287357043
0.301295052
0.213203886
0.223960493
0.301295052
0.335498709
0.223960493
0.251084951
0.335498709
0.393294049
0.251084951
0.299868143
0.393294049
0.468322467
0.299868143
0.367594816
0.468322467
0.485048865
0.367594816
0.382611325
0.485048865
0.433704948
0.382611325
0.336039507
0.336039507
0.273099839
0.193722929
0.149541025
0.273099839
0.235648456
0.149541025
0.127817471
0.235648456
0.216888586
0.127817471
0.117361861
0.216888586
0.213203886
0.117361861
0.115336487
0.213203886
0.223960493
0.115336487
0.121277071
0.223960493
0.251084951
0.121277071
0.13663075
0.251084951
0.299868143
0.13663075
0.16685534
0.299868143
0.367594816
0.16685534
0.217965329
0.367594816
0.382611325
0.217965329
0.228491738
0.382611325
0.336039507
0.228491738
0.193722929
0.193722929
0.149541025
0
0
0.149541025
0.127817471
0
0
0.127817471
0.117361861
0
0
0.117361861
0.115336487
0
0
0.115336487
0.121277071
0
0
0.121277071
0.13663075
0
0
0.13663075
0.16685534
0
0
0.16685534
0.217965329
0
0
0.217965329
0.228491738
0
0
0.228491738
0.193722929
0
0
</DataArray>
<DataArray type="Float64" Name="concentration_gradient" NumberOfComponents="2" ComponentName0="0" ComponentName1="1" format="ascii" >
0 1.93722929 
0 1.49541025 
-0.44181904 1.93722929 
-0.44181904 1.49541025 
0 1.49541025 
0 1.27817471 
-0.217235544 1.49541025 
-0.217235544 1.27817471 
0 1.27817471 
0 1.17361861 
-0.104556102 1.27817471 
-0.104556102 1.17361861 
0 1.17361861 
0 1.15336487 
-0.0202537361 1.17361861 
-0.0202537361 1.15336487 
0 1.15336487 
0 1.21277071 
0.0594058377 1.15336487 
0.0594058377 1.21277071 
0 1.21277071 
0 1.3663075 
0.153536788 1.21277071 
0.153536788 1.3663075 
0 1.3663075 
0 1.6685534 
0.3022459 1.3663075 
0.3022459 1.6685534 
0 1.6685534 
0 2.17965329 
0.511099892 1.6685534 
0.511099892 2.17965329 
0 2.17965329 
0 2.28491738 
0.105264093 2.17965329 
0.105264093 2.28491738 
0 2.28491738 
0 1.93722929 
-0.34768809 2.28491738 
-0.34768809 1.93722929 
-0.44181904 1.42316577 
-0.44181904 1.23558814 
-0.629396677 1.42316577 
-0.629396677 1.23558814 
-0.217235544 1.23558814 
-0.217235544 1.07830985 
-0.374513829 1.23558814 
-0.374513829 1.07830985 
-0.104556102 1.07830985 
-0.104556102 0.995267252 
-0.187598701 1.07830985 
-0.187598701 0.995267252 
-0.0202537361 0.995267252 
-0.0202537361 0.978673985 
-0.0368470029 0.995267252 
-0.0368470029 0.978673985 
0.0594058377 0.978673985 
0.0594058377 1.02683423 
0.107566079 0.978673985 
0.107566079 1.02683423 
0.153536788 1.02683423 
0.153536788 1.14454201 
0.271244573 1.02683423 
0.271244573 1.14454201 
0.3022459 1.14454201 
0.3022459 1.33012803 
0.487831917 1.14454201 
0.487831917 1.33012803 
0.511099892 1.33012803 
0.511099892 1.49629487 
0.677266732 1.33012803 
0.677266732 1.49629487 
0.105264093 1.49629487 
0.105264093 1.54119587 
0.150165091 1.49629487 
0.150165091 1.54119587 
-0.34768809 1.54119587 
-0.34768809 1.42316577 
-0.465718183 1.54119587 
-0.465718183 1.42316577 
-0.629396677 0.976654418 
-0.629396677 0.889955442 
-0.716095654 0.976654418 
-0.716095654 0.889955442 
-0.374513829 0.889955442 
-0.374513829 0.805805358 
-0.458663912 0.889955442 
-0.458663912 0.805805358 
-0.187598701 0.805805358 
-0.187598701 0.752659057 
-0.240745002 0.805805358 
-0.240745002 0.752659057 
-0.0368470029 0.752659057 
-0.0368470029 0.741531578 
-0.047974482 0.752659057 
-0.047974482 0.741531578 
0.107566079 0.741531578 
0.107566079 0.773345582 
0.139380082 0.741531578 
0.139380082 0.773345582 
0.271244573 0.773345582 
0.271244573 0.844137582 
0.342036573 0.773345582 
0.342036573 0.844137582 
0.487831917 0.844137582 
0.487831917 0.93425907 
0.577953406 0.844137582 
0.577953406 0.93425907 
0.677266732 0.93425907 
0.677266732 1.00727651 
0.750284177 0.93425907 
0.750284177 1.00727651 
0.150165091 1.00727651 
0.150165091 1.0243754 
0.167263975 1.00727651 
0.167263975 1.0243754 
-0.465718183 1.0243754 
-0.465718183 0.976654418 
-0.513439163 1.0243754 
-0.513439163 0.976654418 
-0.716095654 0.572332721 
-0.716095654 0.533908083 
-0.754520291 0.572332721 
-0.754520291 0.533908083 
-0.458663912 0.533908083 
-0.458663912 0.49387919 
-0.498692806 0.533908083 
-0.498692806 0.49387919 
-0.240745002 0.49387919 
-0.240745002 0.466875851 
-0.26774834 0.49387919 
-0.26774834 0.466875851 
-0.047974482 0.466875851 
-0.047974482 0.460929394 
-0.0539209393 0.466875851 
-0.0539209393 0.460929394 
0.139380082 0.460929394 
0.139380082 0.477667279 
0.156117968 0.460929394 
0.156117968 0.477667279 
0.342036573 0.477667279 
0.342036573 0.512448596 
0.37681789 0.477667279 
0.37681789 0.512448596 
0.577953406 0.512448596 
0.577953406 0.55387586 
0.61938067 0.512448596 
0.61938067 0.55387586 
0.750284177 0.55387586 
0.750284177 0.585369099 
0.781777415 0.55387586 
0.781777415 0.585369099 
0.167263975 0.585369099 
0.167263975 0.592713927 
0.174608803 0.585369099 
0.174608803 0.592713927 
-0.513439163 0.592713927 
-0.513439163 0.572332721 
-0.533820369 0.592713927 
-0.533820369 0.572332721 
-0.754520291 0.188772748 
-0.754520291 0.17779111 
-0.765501928 0.188772748 
-0.765501928 0.17779111 
-0.498692806 0.17779111 
-0.498692806 0.166073681 
-0.510410236 0.17779111 
-0.510410236 0.166073681 
-0.26774834 0.166073681 
-0.26774834 0.157964937 
-0.275857084 0.166073681 
-0.275857084 0.157964937 
-0.0539209393 0.157964937 
-0.0539209393 0.156163614 
-0.0557222627 0.157964937 
-0.0557222627 0.156163614 
0.156117968 0.156163614 
0.156117968 0.161227252 
0.161181606 0.156163614 
0.161181606 0.161227252 
0.37681789 0.161227252 
0.37681789 0.171554637 
0.387145275 0.161227252 
0.387145275 0.171554637 
0.61938067 0.171554637 
0.61938067 0.183521506 
0.631347539 0.171554637 
0.631347539 0.183521506 
0.781777415 0.183521506 
0.781777415 0.192439876 
0.790695786 0.183521506 
0.790695786 0.192439876 
0.174608803 0.192439876 
0.174608803 0.194490638 
0.176659565 0.192439876 
0.176659565 0.194490638 
-0.533820369 0.194490638 
-0.533820369 0.188772748 
-0.53953826 0.194490638 
-0.53953826 0.188772748 
-0.765501928 -0.188772748 
-0.765501928 -0.17779111 
-0.754520291 -0.188772748 
-0.754520291 -0.17779111 
-0.510410236 -0.17779111 
-0.510410236 -0.166073681 
-0.498692806 -0.17779111 
-0.498692806 -0.166073681 
-0.275857084 -0.166073681 
-0.275857084 -0.157964937 
-0.26774834 -0.166073681 
-0.26774834 -0.157964937 
-0.0557222627 -0.157964937 
-0.0557222627 -0.156163614 
-0.0539209393 -0.157964937 
-0.0539209393 -0.156163614 
0.161181606 -0.156163614 
0.161181606 -0.161227252 
0.156117968 -0.156163614 
0.156117968 -0.161227252 
0.387145275 -0.161227252 
0.387145275 -0.171554637 
0.37681789 -0.161227252 
0.37681789 -0.171554637 
0.631347539 -0.171554637 
0.631347539 -0.183521506 
0.61938067 -0.171554637 
0.61938067 -0.183521506 
0.790695786 -0.183521506 
0.790695786 -0.192439876 
0.781777415 -0.183521506 
0.781777415 -0.192439876 
0.176659565 -0.192439876 
0.176659565 -0.194490638 
0.174608803 -0.192439876 
0.174608803 -0.194490638 
-0.53953826 -0.194490638 
-0.53953826 -0.188772748 
-0.533820369 -0.194490638 
-0.533820369 -0.188772748 
-0.754520291 -0.572332721 
-0.754520291 -0.533908083 
-0.716095654 -0.572332721 
-0.716095654 -0.533908083 
-0.498692806 -0.533908083 
-0.498692806 -0.49387919 
-0.458663912 -0.533908083 
-0.458663912 -0.49387919 
-0.26774834 -0.49387919 
-0.26774834 -0.466875851 
-0.240745002 -0.49387919 
-0.240745002 -0.466875851 
-0.0539209393 -0.466875851 
-0.0539209393 -0.460929394 
-0.047974482 -0.466875851 
-0.047974482 -0.460929394 
0.156117968 -0.460929394 
0.156117968 -0.477667279 
0.139380082 -0.460929394 
0.139380082 -0.477667279 
0.37681789 -0.477667279 
0.37681789 -0.512448596 
0.342036573 -0.477667279 
0.342036573 -0.512448596 
0.61938067 -0.512448596 
0.61938067 -0.55387586 
0.577953406 -0.512448596 
0.577953406 -0.55387586 
0.781777415 -0.55387586 
0.781777415 -0.585369099 
0.750284177 -0.55387586 
0.750284177 -0.585369099 
0.174608803 -0.585369099 
0.174608803 -0.592713927 
0.167263975 -0.585369099 
0.167263975 -0.592713927 
-0.533820369 -0.592713927 
-0.533820369 -0.572332721 
-0.513439163 -0.592713927 
-0.513439163 -0.572332721 
-0.716095654 -0.976654418 
-0.716095654 -0.889955442 
-0.629396677 -0.976654418 
-0.629396677 -0.889955442 
-0.458663912 -0.889955442 
-0.458663912 -0.805805358 
-0.374513829 -0.889955442 
-0.374513829 -0.805805358 
-0.240745002 -0.805805358 
-0.240745002 -0.752659057 
-0.187598701 -0.805805358 
-0.187598701 -0.752659057 
-0.047974482 -0.752659057 
-0.047974482 -0.741531578 
-0.0368470029 -0.752659057 
-0.0368470029 -0.741531578 
0.139380082 -0.741531578 
0.139380082 -0.773345582 
0.107566079 -0.741531578 
0.107566079 -0.773345582 
0.342036573 -0.773345582 
0.342036573 -0.844137582 
0.271244573 -0.773345582 
0.271244573 -0.844137582 
0.577953406 -0.844137582 
0.577953406 -0.93425907 
0.487831917 -0.844137582 
0.487831917 -0.93425907 
0.750284177 -0.93425907 
0.750284177 -1.00727651 
0.677266732 -0.93425907 
0.677266732 -1.00727651 
0.167263975 -1.00727651 
0.167263975 -1.0243754 
0.150165091 -1.00727651 
0.150165091 -1.0243754 
-0.513439163 -1.0243754 
-0.513439163 -0.976654418 
-0.465718183 -1.0243754 
-0.465718183 -0.976654418 
-0.629396677 -1.42316577 
-0.629396677 -1.23558814 
-0.44181904 -1.42316577 
-0.44181904 -1.23558814 
-0.374513829 -1.23558814 
-0.374513829 -1.07830985 
-0.217235544 -1.23558814 
-0.217235544 -1.07830985 
-0.187598701 -1.07830985 
-0.187598701 -0.995267252 
-0.104556102 -1.07830985 
-0.104556102 -0.995267252 
-0.0368470029 -0.995267252 
-0.0368470029 -0.978673985 
-0.0202537361 -0.995267252 
-0.0202537361 -0.978673985 
0.107566079 -0.978673985 
0.107566079 -1.02683423 
0.0594058377 -0.978673985 
0.0594058377 -1.02683423 
0.271244573 -1.02683423 
0.271244573 -1.14454201 
0.153536788 -1.02683423 
0.153536788 -1.14454201 
0.487831917 -1.14454201 
0.487831917 -1.33012803 
0.3022459 -1.14454201 
0.3022459 -1.33012803 
0.677266732 -1.33012803 
0.677266732 -1.49629487 
0.511099892 -1.33012803 
0.511099892 -1.49629487 
0.150165091 -1.49629487 
0.150165091 -1.54119587 
0.105264093 -1.49629487 
0.105264093 -1.54119587 
-0.465718183 -1.54119587 
-0.465718183 -1.42316577 
-0.34768809 -1.54119587 
-0.34768809 -1.42316577 
-0.44181904 -1.93722929 
-0.44181904 -1.49541025 
0 -1.93722929 
0 -1.49541025 
-0.217235544 -1.49541025 
-0.217235544 -1.27817471 
0 -1.49541025 
0 -1.27817471 
-0.104556102 -1.27817471 
-0.104556102 -1.17361861 
0 -1.27817471 
0 -1.17361861 
-0.0202537361 -1.17361861 
-0.0202537361 -1.15336487 
0 -1.17361861 
0 -1.15336487 
0.0594058377 -1.15336487 
0.0594058377 -1.21277071 
0 -1.15336487 
0 -1.21277071 
0.153536788 -1.21277071 
0.153536788 -1.3663075 
0 -1.21277071 
0 -1.3663075 
0.3022459 -1.3663075 
0.3022459 -1.6685534 
0 -1.3663075 
0 -1.6685534 
0.511099892 -1.6685534 
0.511099892 -2.17965329 
0 -1.6685534 
0 -2.17965329 
0.105264093 -2.17965329 
0.105264093 -2.28491738 
0 -2.17965329 
0 -2.28491738 
-0.34768809 -2.28491738 
-0.34768809 -1.93722929 
0 -2.28491738 
0 -1.93722929 
</DataArray>
</PointData>
</Piece>
</UnstructuredGrid>
</VTKFile>
